<VTKFile type="UnstructuredGrid" version="0.1" byte_order="LittleEndian">
  <UnstructuredGrid>
    <Piece NumberOfPoints="9751" NumberOfCells="19154">
      <Points>
        <DataArray type = "Float32" NumberOfComponents="3" format="ascii">
-5 -7 0.0 
15.5 -7 0.0 
15.5 7 0.0 
-5 7 0.0 
-4.80097 -7 0.0 
-4.60194 -7 0.0 
-4.40291 -7 0.0 
-4.20388 -7 0.0 
-4.00485 -7 0.0 
-3.80583 -7 0.0 
-3.6068 -7 0.0 
-3.40777 -7 0.0 
-3.20874 -7 0.0 
-3.00971 -7 0.0 
-2.81068 -7 0.0 
-2.61165 -7 0.0 
-2.41262 -7 0.0 
-2.21359 -7 0.0 
-2.01456 -7 0.0 
-1.81553 -7 0.0 
-1.6165 -7 0.0 
-1.41748 -7 0.0 
-1.21845 -7 0.0 
-1.01942 -7 0.0 
-0.820388 -7 0.0 
-0.621359 -7 0.0 
-0.42233 -7 0.0 
-0.223301 -7 0.0 
-0.0242718 -7 0.0 
0.174757 -7 0.0 
0.373786 -7 0.0 
0.572816 -7 0.0 
0.771845 -7 0.0 
0.970874 -7 0.0 
1.1699 -7 0.0 
1.36893 -7 0.0 
1.56796 -7 0.0 
1.76699 -7 0.0 
1.96602 -7 0.0 
2.16505 -7 0.0 
2.36408 -7 0.0 
2.56311 -7 0.0 
2.76214 -7 0.0 
2.96117 -7 0.0 
3.16019 -7 0.0 
3.35922 -7 0.0 
3.55825 -7 0.0 
3.75728 -7 0.0 
3.95631 -7 0.0 
4.15534 -7 0.0 
4.35437 -7 0.0 
4.5534 -7 0.0 
4.75243 -7 0.0 
4.95146 -7 0.0 
5.15049 -7 0.0 
5.34951 -7 0.0 
5.54854 -7 0.0 
5.74757 -7 0.0 
5.9466 -7 0.0 
6.14563 -7 0.0 
6.34466 -7 0.0 
6.54369 -7 0.0 
6.74272 -7 0.0 
6.94175 -7 0.0 
7.14078 -7 0.0 
7.33981 -7 0.0 
7.53883 -7 0.0 
7.73786 -7 0.0 
7.93689 -7 0.0 
8.13592 -7 0.0 
8.33495 -7 0.0 
8.53398 -7 0.0 
8.73301 -7 0.0 
8.93204 -7 0.0 
9.13107 -7 0.0 
9.3301 -7 0.0 
9.52913 -7 0.0 
9.72816 -7 0.0 
9.92718 -7 0.0 
10.1262 -7 0.0 
10.3252 -7 0.0 
10.5243 -7 0.0 
10.7233 -7 0.0 
10.9223 -7 0.0 
11.1214 -7 0.0 
11.3204 -7 0.0 
11.5194 -7 0.0 
11.7184 -7 0.0 
11.9175 -7 0.0 
12.1165 -7 0.0 
12.3155 -7 0.0 
12.5146 -7 0.0 
12.7136 -7 0.0 
12.9126 -7 0.0 
13.1117 -7 0.0 
13.3107 -7 0.0 
13.5097 -7 0.0 
13.7087 -7 0.0 
13.9078 -7 0.0 
14.1068 -7 0.0 
14.3058 -7 0.0 
14.5049 -7 0.0 
14.7039 -7 0.0 
14.9029 -7 0.0 
15.1019 -7 0.0 
15.301 -7 0.0 
15.5 -6.8 0.0 
15.5 -6.6 0.0 
15.5 -6.4 0.0 
15.5 -6.2 0.0 
15.5 -6 0.0 
15.5 -5.8 0.0 
15.5 -5.6 0.0 
15.5 -5.4 0.0 
15.5 -5.2 0.0 
15.5 -5 0.0 
15.5 -4.8 0.0 
15.5 -4.6 0.0 
15.5 -4.4 0.0 
15.5 -4.2 0.0 
15.5 -4 0.0 
15.5 -3.8 0.0 
15.5 -3.6 0.0 
15.5 -3.4 0.0 
15.5 -3.2 0.0 
15.5 -3 0.0 
15.5 -2.8 0.0 
15.5 -2.6 0.0 
15.5 -2.4 0.0 
15.5 -2.2 0.0 
15.5 -2 0.0 
15.5 -1.8 0.0 
15.5 -1.6 0.0 
15.5 -1.4 0.0 
15.5 -1.2 0.0 
15.5 -1 0.0 
15.5 -0.8 0.0 
15.5 -0.6 0.0 
15.5 -0.4 0.0 
15.5 -0.2 0.0 
15.5 -3.1193e-012 0.0 
15.5 0.2 0.0 
15.5 0.4 0.0 
15.5 0.6 0.0 
15.5 0.8 0.0 
15.5 1 0.0 
15.5 1.2 0.0 
15.5 1.4 0.0 
15.5 1.6 0.0 
15.5 1.8 0.0 
15.5 2 0.0 
15.5 2.2 0.0 
15.5 2.4 0.0 
15.5 2.6 0.0 
15.5 2.8 0.0 
15.5 3 0.0 
15.5 3.2 0.0 
15.5 3.4 0.0 
15.5 3.6 0.0 
15.5 3.8 0.0 
15.5 4 0.0 
15.5 4.2 0.0 
15.5 4.4 0.0 
15.5 4.6 0.0 
15.5 4.8 0.0 
15.5 5 0.0 
15.5 5.2 0.0 
15.5 5.4 0.0 
15.5 5.6 0.0 
15.5 5.8 0.0 
15.5 6 0.0 
15.5 6.2 0.0 
15.5 6.4 0.0 
15.5 6.6 0.0 
15.5 6.8 0.0 
15.301 7 0.0 
15.1019 7 0.0 
14.9029 7 0.0 
14.7039 7 0.0 
14.5049 7 0.0 
14.3058 7 0.0 
14.1068 7 0.0 
13.9078 7 0.0 
13.7087 7 0.0 
13.5097 7 0.0 
13.3107 7 0.0 
13.1117 7 0.0 
12.9126 7 0.0 
12.7136 7 0.0 
12.5146 7 0.0 
12.3155 7 0.0 
12.1165 7 0.0 
11.9175 7 0.0 
11.7184 7 0.0 
11.5194 7 0.0 
11.3204 7 0.0 
11.1214 7 0.0 
10.9223 7 0.0 
10.7233 7 0.0 
10.5243 7 0.0 
10.3252 7 0.0 
10.1262 7 0.0 
9.92718 7 0.0 
9.72816 7 0.0 
9.52913 7 0.0 
9.3301 7 0.0 
9.13107 7 0.0 
8.93204 7 0.0 
8.73301 7 0.0 
8.53398 7 0.0 
8.33495 7 0.0 
8.13592 7 0.0 
7.93689 7 0.0 
7.73786 7 0.0 
7.53883 7 0.0 
7.33981 7 0.0 
7.14078 7 0.0 
6.94175 7 0.0 
6.74272 7 0.0 
6.54369 7 0.0 
6.34466 7 0.0 
6.14563 7 0.0 
5.9466 7 0.0 
5.74757 7 0.0 
5.54854 7 0.0 
5.34951 7 0.0 
5.15049 7 0.0 
4.95146 7 0.0 
4.75243 7 0.0 
4.5534 7 0.0 
4.35437 7 0.0 
4.15534 7 0.0 
3.95631 7 0.0 
3.75728 7 0.0 
3.55825 7 0.0 
3.35922 7 0.0 
3.16019 7 0.0 
2.96117 7 0.0 
2.76214 7 0.0 
2.56311 7 0.0 
2.36408 7 0.0 
2.16505 7 0.0 
1.96602 7 0.0 
1.76699 7 0.0 
1.56796 7 0.0 
1.36893 7 0.0 
1.1699 7 0.0 
0.970874 7 0.0 
0.771845 7 0.0 
0.572816 7 0.0 
0.373786 7 0.0 
0.174757 7 0.0 
-0.0242718 7 0.0 
-0.223301 7 0.0 
-0.42233 7 0.0 
-0.621359 7 0.0 
-0.820388 7 0.0 
-1.01942 7 0.0 
-1.21845 7 0.0 
-1.41748 7 0.0 
-1.6165 7 0.0 
-1.81553 7 0.0 
-2.01456 7 0.0 
-2.21359 7 0.0 
-2.41262 7 0.0 
-2.61165 7 0.0 
-2.81068 7 0.0 
-3.00971 7 0.0 
-3.20874 7 0.0 
-3.40777 7 0.0 
-3.6068 7 0.0 
-3.80583 7 0.0 
-4.00485 7 0.0 
-4.20388 7 0.0 
-4.40291 7 0.0 
-4.60194 7 0.0 
-4.80097 7 0.0 
-5 6.8 0.0 
-5 6.6 0.0 
-5 6.4 0.0 
-5 6.2 0.0 
-5 6 0.0 
-5 5.8 0.0 
-5 5.6 0.0 
-5 5.4 0.0 
-5 5.2 0.0 
-5 5 0.0 
-5 4.8 0.0 
-5 4.6 0.0 
-5 4.4 0.0 
-5 4.2 0.0 
-5 4 0.0 
-5 3.8 0.0 
-5 3.6 0.0 
-5 3.4 0.0 
-5 3.2 0.0 
-5 3 0.0 
-5 2.8 0.0 
-5 2.6 0.0 
-5 2.4 0.0 
-5 2.2 0.0 
-5 2 0.0 
-5 1.8 0.0 
-5 1.6 0.0 
-5 1.4 0.0 
-5 1.2 0.0 
-5 1 0.0 
-5 0.8 0.0 
-5 0.6 0.0 
-5 0.4 0.0 
-5 0.2 0.0 
-5 3.1193e-012 0.0 
-5 -0.2 0.0 
-5 -0.4 0.0 
-5 -0.6 0.0 
-5 -0.8 0.0 
-5 -1 0.0 
-5 -1.2 0.0 
-5 -1.4 0.0 
-5 -1.6 0.0 
-5 -1.8 0.0 
-5 -2 0.0 
-5 -2.2 0.0 
-5 -2.4 0.0 
-5 -2.6 0.0 
-5 -2.8 0.0 
-5 -3 0.0 
-5 -3.2 0.0 
-5 -3.4 0.0 
-5 -3.6 0.0 
-5 -3.8 0.0 
-5 -4 0.0 
-5 -4.2 0.0 
-5 -4.4 0.0 
-5 -4.6 0.0 
-5 -4.8 0.0 
-5 -5 0.0 
-5 -5.2 0.0 
-5 -5.4 0.0 
-5 -5.6 0.0 
-5 -5.8 0.0 
-5 -6 0.0 
-5 -6.2 0.0 
-5 -6.4 0.0 
-5 -6.6 0.0 
-5 -6.8 0.0 
8.41365 -0.0150895 0.0 
1.70542 0.290156 0.0 
5.04263 -2.63896 0.0 
5.21284 2.77039 0.0 
11.3717 2.87144 0.0 
11.3889 -2.84809 0.0 
-0.89222 -2.89182 0.0 
-1.04288 3.0536 0.0 
8.11234 -3.68352 0.0 
2.13436 3.75993 0.0 
8.25559 3.75844 0.0 
2.08242 -3.86981 0.0 
-1.88619 0.0596801 0.0 
12.4686 -0.00913525 0.0 
5.6738 0.0288943 0.0 
13.1037 4.5806 0.0 
13.0907 -4.58887 0.0 
-2.59844 -4.62034 0.0 
6.09142 -4.70624 0.0 
-2.69506 4.69463 0.0 
2.82941 -1.71771 0.0 
4.13444 4.74325 0.0 
10.1156 -4.81231 0.0 
7.07596 -1.75288 0.0 
10.2506 4.79281 0.0 
7.21083 1.82703 0.0 
6.33519 4.82454 0.0 
10.4364 0.879718 0.0 
3.77541 1.09164 0.0 
0.103412 -4.81604 0.0 
0.211995 4.82112 0.0 
-2.82132 -1.89586 0.0 
9.4268 -1.92724 0.0 
13.3451 1.96473 0.0 
13.3735 -1.92316 0.0 
-0.00703577 -0.937695 0.0 
-2.87931 1.95315 0.0 
3.94481 -4.88089 0.0 
-0.144577 1.19456 0.0 
9.00385 2.08844 0.0 
1.46144 2.05245 0.0 
0.876611 -2.52457 0.0 
11.0356 -1.13244 0.0 
7.64166 -5.29124 0.0 
3.51917 2.75492 0.0 
4.11685 -0.564126 0.0 
2.55787 5.32805 0.0 
8.72227 5.34462 0.0 
11.6377 -5.3597 0.0 
1.62783 -5.40773 0.0 
11.6957 5.38674 0.0 
-1.27418 5.40456 0.0 
-3.4027 -0.414984 0.0 
13.9272 -0.501627 0.0 
3.55205 -3.36339 0.0 
6.42945 -3.16813 0.0 
0.476372 3.2917 0.0 
6.63655 3.25774 0.0 
-1.26569 -5.41962 0.0 
-3.46923 -3.33334 0.0 
-3.45794 3.36469 0.0 
11.8768 1.42088 0.0 
13.9206 3.34697 0.0 
13.9523 -3.35867 0.0 
9.94137 3.26753 0.0 
-1.45465 -1.48115 0.0 
1.47837 -1.19073 0.0 
9.58341 -3.37763 0.0 
7.07032 0.413059 0.0 
5.80532 1.43508 0.0 
9.80217 -0.374825 0.0 
5.66655 -1.4073 0.0 
-1.47981 1.68963 0.0 
14.0371 5.59199 0.0 
14.0633 -5.60259 0.0 
-3.54432 -5.58681 0.0 
9.01047 -5.60381 0.0 
5.23867 5.63037 0.0 
5.0616 -5.63376 0.0 
14.1283 0.858352 0.0 
1.27586 5.65374 0.0 
-3.61862 5.58144 0.0 
7.37234 5.64926 0.0 
4.91339 -3.97257 0.0 
12.648 3.30021 0.0 
12.643 -3.32301 0.0 
-3.67439 0.884921 0.0 
-2.1169 -3.37614 0.0 
2.94406 -5.72558 0.0 
8.27735 -1.30334 0.0 
5.25193 4.05631 0.0 
-0.972153 -4.16312 0.0 
2.84965 -0.381423 0.0 
2.47981 1.31786 0.0 
11.354 4.16024 0.0 
11.2537 -4.13573 0.0 
12.0778 -1.82545 0.0 
0.835117 -3.76141 0.0 
-2.20798 3.56282 0.0 
10.3565 2.19026 0.0 
12.7906 -5.7765 0.0 
4.08429 -1.84457 0.0 
0.478341 0.187737 0.0 
2.09015 -2.655 0.0 
12.8648 5.78371 0.0 
-0.842943 4.2873 0.0 
6.52635 -5.77589 0.0 
8.21367 1.18472 0.0 
7.97065 -2.47718 0.0 
-0.70075 0.0375302 0.0 
-2.42617 -5.81451 0.0 
11.2711 0.037211 0.0 
3.28326 3.92593 0.0 
3.67164 5.83884 0.0 
-3.80777 -4.42659 0.0 
-2.39537 5.8217 0.0 
10.5522 -5.80566 0.0 
9.74593 5.83714 0.0 
7.13723 -4.26674 0.0 
-3.83284 4.48572 0.0 
9.00563 -4.42235 0.0 
14.3194 4.45063 0.0 
14.3201 -4.44108 0.0 
6.6137 -0.627155 0.0 
9.25924 0.781814 0.0 
8.01553 2.64102 0.0 
-0.21233 2.32162 0.0 
4.87988 0.822714 0.0 
0.59295 -5.8735 0.0 
-0.205096 5.86017 0.0 
7.43745 4.51253 0.0 
-3.87336 -1.44249 0.0 
10.5036 -2.13119 0.0 
1.28147 4.52237 0.0 
14.3773 -1.53238 0.0 
-0.155086 -2.05718 0.0 
9.18643 4.38202 0.0 
2.41168 2.69977 0.0 
4.345 2.05469 0.0 
14.3917 2.31766 0.0 
4.26261 3.54893 0.0 
6.26666 5.91856 0.0 
-3.90004 2.3817 0.0 
13.0331 0.912242 0.0 
2.92636 -4.61154 0.0 
-2.41426 -0.900079 0.0 
-2.55861 0.924885 0.0 
12.7773 -1.03887 0.0 
1.02345 1.08869 0.0 
4.05933 -5.93056 0.0 
10.7888 5.98195 0.0 
12.3583 2.37508 0.0 
-0.433601 -5.98372 0.0 
-0.194603 -3.61418 0.0 
-2.02342 2.52947 0.0 
-1.92482 -2.36052 0.0 
6.30193 2.30951 0.0 
-3.9608 -2.48383 0.0 
7.57617 -0.552954 0.0 
14.5164 -2.52189 0.0 
10.5649 -3.45905 0.0 
8.95631 3.06939 0.0 
6.18503 -2.21818 0.0 
1.43765 3.03174 0.0 
12.2059 -4.19047 0.0 
8.90271 -2.71243 0.0 
3.00195 0.500528 0.0 
5.04173 -0.66713 0.0 
-1.758 4.60697 0.0 
-1.23485 0.78611 0.0 
8.1911 -6.06865 0.0 
10.1225 -1.30205 0.0 
11.8864 -0.748107 0.0 
3.21757 1.86677 0.0 
7.34848 -3.14924 0.0 
3.44068 -2.46025 0.0 
0.639695 -1.61175 0.0 
9.18019 -1.0304 0.0 
1.02221 -4.6822 0.0 
12.1787 4.61714 0.0 
2.07353 6.09367 0.0 
8.13151 6.12041 0.0 
5.80928 -3.81858 0.0 
14.5991 0.0970642 0.0 
0.553511 1.85722 0.0 
-1.30761 -0.615287 0.0 
9.75174 1.54593 0.0 
8.12005 -4.57325 0.0 
-4.10751 0.110892 0.0 
2.12716 -6.12848 0.0 
9.7338 -6.11698 0.0 
4.49813 6.10545 0.0 
10.5289 3.92295 0.0 
4.15707 0.309293 0.0 
-1.71882 -4.63645 0.0 
6.66538 1.12562 0.0 
-0.018476 4.01749 0.0 
3.2527 4.80601 0.0 
11.0141 1.54829 0.0 
2.71665 -3.29133 0.0 
-2.78778 -2.75425 0.0 
6.09899 4.0067 0.0 
7.51111 3.34852 0.0 
11.9975 -6.09922 0.0 
0.797819 -0.653925 0.0 
7.32054 -6.12934 0.0 
13.2928 0.0843629 0.0 
5.20693 -4.78417 0.0 
0.569525 6.14444 0.0 
2.14326 4.63298 0.0 
12.6538 -2.47507 0.0 
5.74088 -6.14627 0.0 
3.42481 -1.07544 0.0 
[...]
<PointData>
  <DataArray type = "Float32" Name="LevelSetLayer1" format="ascii">
-8.59638
-16.0982
-16.0991
-8.59132
-8.4819
-8.37058
-8.26236
-8.15757
-8.05633
-7.95878
-7.86506
-7.77531
-7.68966
-7.60825
-7.53123
-7.45872
-7.39086
-7.32753
-7.26893
-7.2152
-7.16637
-7.12268
-7.08414
-7.05082
-7.02263
-6.99969
-6.98199
-6.969
-6.96097
-6.95771
-6.95884
-6.96384
-6.97157
-6.98209
-6.99434
-7.0075
-7.02162
-7.04062
-7.06499
-7.09486
-7.13017
-7.17083
-7.21675
-7.26783
-7.32397
-7.38504
-7.45093
-7.52152
-7.59666
-7.67623
-7.76009
-7.8481
-7.94013
-8.03603
-8.13567
-8.23892
-8.34563
-8.45569
-8.56895
-8.6853
-8.80461
-8.92676
-9.05164
-9.17914
-9.30915
-9.44157
-9.57629
-9.71322
-9.85226
-9.99334
-10.1364
-10.2812
-10.4279
-10.5763
-10.7263
-10.8779
-11.031
-11.1856
-11.3415
-11.4988
-11.6573
-11.8171
-11.978
-12.1401
-12.3033
-12.4675
-12.6327
-12.7988
-12.9659
-13.1339
-13.3027
-13.4724
-13.6429
-13.8141
-13.986
-14.1587
-14.332
-14.506
-14.6807
-14.8559
-15.0318
-15.2082
-15.3852
-15.5627
-15.7407
-15.9192
-16.0123
-15.9284
-15.8466
-15.7669
-15.6893
-15.614
-15.5408
-15.4698
-15.4012
-15.3348
-15.2708
-15.2091
-15.1499
-15.093
-15.0386
-14.9866
-14.9372
-14.8903
-14.8459
-14.8041
-14.7649
-14.7283
-14.6943
-14.663
-14.6343
-14.6083
-14.585
-14.5645
-14.5466
-14.5315
-14.5191
-14.5095
-14.5026
-14.4985
-14.4971
-14.4985
-14.5027
-14.5096
-14.5192
-14.5316
-14.5468
-14.5647
-14.5853
-14.6086
-14.6346
-14.6633
-14.6946
-14.7286
-14.7652
-14.8045
-14.8463
-14.8907
-14.9377
-14.9871
-15.0391
-15.0935
-15.1504
-15.2097
-15.2714
-15.3355
-15.4018
-15.4705
-15.5415
-15.6147
-15.6901
-15.7676
-15.8474
-15.9292
-16.0131
-15.9201
-15.7416
-15.5636
-15.3861
-15.2091
-15.0327
-14.8569
-14.6816
-14.507
-14.333
-14.1596
-13.987
-13.8151
-13.6438
-13.4734
-13.3038
-13.1349
-12.967
-12.7999
-12.6337
-12.4685
-12.3044
-12.1412
-11.9792
-11.8182
-11.6585
-11.5
-11.3427
-11.1868
-11.0322
-10.8792
-10.7276
-10.5776
-10.4292
-10.2826
-10.1377
-9.9947
-9.85364
-9.71461
-9.5777
-9.443
-9.31061
-9.18062
-9.05314
-8.92828
-8.80609
-8.68673
-8.57034
-8.45702
-8.34692
-8.24015
-8.13685
-8.03715
-7.94119
-7.8491
-7.76103
-7.67711
-7.59747
-7.52226
-7.45161
-7.38564
-7.3245
-7.26829
-7.21713
-7.17113
-7.13007
-7.09288
-7.05931
-7.02899
-7.00216
-6.97883
-6.95928
-6.94356
-6.93166
-6.92414
-6.92117
-6.9223
-6.92827
-6.93944
-6.9552
-6.97583
-7.00134
-7.03182
-7.06733
-7.10758
-7.15261
-7.2027
-7.2577
-7.31726
-7.38153
-7.45035
-7.52379
-7.60151
-7.68347
-7.76956
-7.85953
-7.95338
-8.05092
-8.15215
-8.25693
-8.36514
-8.47665
-8.42975
-8.26987
-8.11178
-7.95556
-7.80135
-7.64926
-7.49941
-7.35196
-7.20703
-7.0648
-6.92542
-6.78906
-6.65571
-6.52577
-6.39943
-6.27693
-6.15849
-6.0441
-5.93422
-5.82914
-5.72912
-5.63442
-5.54532
-5.46209
-5.38498
-5.31396
-5.24961
-5.19217
-5.14187
-5.09893
-5.06353
-5.03583
-5.01595
-5.004
-5.00002
-5.00404
-5.01604
-5.03596
-5.06371
-5.09915
-5.14214
-5.19247
-5.24995
-5.31434
-5.38539
-5.46284
-5.54611
-5.63524
-5.72998
-5.83003
-5.93515
-6.04505
-6.15949
-6.27821
-6.40099
-6.52758
-6.65777
-6.79136
-6.92815
-7.06795
-7.21059
-7.35572
-7.50336
-7.65339
-7.80566
-7.96004
-8.11641
-8.27466
-8.43468
-7.41079
-0.760476
-4.82479
-5.04026
-10.7593
-10.7692
-3.01207
-3.20437
-8.0066
-3.92608
-8.16915
-4.01663
-1.88714
-11.4657
-4.67102
-12.9391
-12.9292
-5.29238
-6.93057
-5.39953
-2.50667
-5.68426
-10.3049
-6.32073
-10.4164
-6.4715
-7.1916
-9.47456
-2.98005
-4.77466
-4.74311
-3.39776
-8.64135
-12.4978
-12.519
-0.906347
-3.47689
-5.69812
-1.16424
-8.26929
-2.10241
-2.50932
-10.0963
-8.48884
-3.73184
-3.16449
-5.54988
-9.38959
-11.9086
-5.44276
-11.9735
-5.52178
-3.428
-12.9341
-4.2195
-6.2832
-3.21458
-6.50826
-5.54779
-4.80816
-4.81894
-10.9665
-13.3445
-13.3777
-9.51734
-2.07283
-1.28126
-9.22103
-6.08156
-5.01256
-8.80723
-4.87111
-2.23797
-14.1835
-14.211
-6.60916
-9.77309
-7.04647
-6.94274
-13.1535
-5.63054
-6.6396
-8.51441
-5.57367
-12.104
-12.1049
-3.77934
-3.97773
-6.04478
-7.39014
-5.87503
-4.25753
-1.88555
-1.98006
-11.1562
-11.0533
-11.2242
-3.74119
-4.17876
-9.60683
-13.1266
-3.59082
-0.113577
-2.86811
-13.1972
-4.3348
-7.99115
-7.30763
-7.3947
-0.701745
-6.28877
-10.2683
-4.54049
-6.41985
-5.8347
-6.27632
-11.1751
-10.5131
-7.47176
-5.89167
-9.14291
-14.0409
-14.0379
-5.64567
-8.29339
-7.49383
-2.28444
-3.96354
-5.83865
-5.80119
-7.85974
-4.13346
-9.73657
-4.50823
-13.4618
-2.03539
-9.28338
-3.04542
-3.92372
-13.5881
-4.81951
-7.92138
-4.56789
-12.0648
-4.99572
-2.5768
-2.72047
-11.8201
-1.07342
-6.67098
-11.4699
-11.6014
-5.97011
-3.5888
-3.22981
-3.04106
-5.78086
-4.67409
-6.59644
-13.7467
-10.1681
-8.5255
-5.63656
-3.05856
-11.9608
-8.35221
-2.06102
-4.09343
-4.91064
-1.46179
-9.40677
-9.21202
-10.9091
-2.89712
-7.08367
-3.4628
-1.58369
-8.24185
-4.67184
-12.0924
-6.18497
-9.39621
-6.13805
-13.5966
-1.78452
-1.44517
-8.88457
-8.45931
-4.10902
-6.2298
-10.66
-7.03545
-10.3026
-3.16942
-4.93216
-5.77349
-3.94991
-5.30659
-10.1304
-3.70992
-3.91582
-6.48319
-7.31958
-12.5726
-0.637444
-8.8017
-12.2903
-6.36813
-6.0688
-4.77069
-11.9107
-7.75973
-2.64958
-5.11103
-8.61674
-12.6394
-12.69
-3.29411
-13.739
-4.69656
-4.00797
-2.09486
-4.31903
-2.72448
-6.46631
-11.0951
-4.81655
-6.31463
-1.07867
-4.4424
-10.1004
-6.24201
-10.8804
-15.0071
-14.9925
-12.4724
-6.39755
-7.72521
-7.46061
-13.9597
-9.25508
-11.1819
-4.5642
-2.81242
-5.62018
-4.25222
-4.73074
-6.19588
-12.864
-12.8719
-5.60588
-12.7148
-4.95037
-13.7276
-14.1717
-14.1721
-6.66145
-11.4061
-14.0049
-5.79885
-4.99749
-9.42713
-9.03778
-6.90699
-5.54974
-10.5517
-4.87082
-6.93919
-7.48976
-12.564
-3.97217
-9.86575
-3.73099
-11.7172
-6.36203
-6.62409
-10.0219
-6.81974
-2.4602
-3.20735
-11.3998
-11.9767
-2.36614
-14.6078
-14.6485
-7.90115
-3.71738
-3.73954
-3.31391
-10.7372
-6.61758
-2.55806
-2.49777
-5.3096
-1.50418
-13.4275
-9.8939
-7.10366
-1.5573
-4.07046
-3.90146
-2.72557
-7.20839
-8.72462
-7.17315
-6.46256
-8.18177
-7.72588
-2.59393
-13.4825
-4.42653
-14.0583
-8.62103
-1.78505
-6.28005
-6.71848
-10.2488
-5.99288
-4.93049
-5.5666
-5.22922
-3.71548
-6.11854
-6.40275
-10.1492
-8.98742
-7.28579
-4.6525
-1.95325
-2.30206
-9.49901
-4.40663
-1.74426
-13.0188
-6.8543
-4.56783
-6.99531
-8.76712
-6.74384
-12.2987
-5.37589
-7.97505
-5.32756
-0.458467
-10.0628
-5.49052
-10.6438
-9.69455
-12.1685
-7.84026
-3.8079
-12.5241
-6.26086
-5.59946
-5.23807
-3.63227
-1.43258
-2.97098
-0.252256
-4.23618
-6.01811
-11.6326
-4.29261
-5.03198
-4.19978
-7.61019
-11.2859
-5.5072
-13.8303
-11.2253
-10.7834
-8.77316
-5.64274
-6.30968
-3.38896
-0.883713
-6.39954
-6.23235
-0.132157
-7.64963
-8.74002
-4.05695
-5.44128
-4.45787
-5.28566
-10.0821
-2.11483
-13.1608
-4.42435
-12.9256
-11.8498
-13.5845
-6.30898
-7.9601
-3.55482
-11.4132
-5.24408
-14.2056
-5.05204
-13.4086
-4.74536
-4.7559
-5.3154
-0.789893
-5.04587
-10.5286
-11.4172
-4.13913
-4.30838
-12.2844
-5.2268
-6.58767
-9.14937
-1.39194
-3.08573
-6.12339
-10.7881
-10.7237
-2.42748
-5.71729
-3.2657
-5.69505
-13.9909
-13.4963
-2.04386
-13.8989
-6.08404
-13.2264
-3.11438
-5.21858
-10.2401
-3.68637
-7.73153
-7.52009
-8.58698
-9.46903
-1.06329
-13.3075
-11.2665
-3.00271
-5.88116
-7.02197
-12.9999
-10.3195
-10.8333
-14.5624
-4.91028
-5.24269
-9.60073
-8.05348
-8.03631
-9.32424
-5.86863
-2.55504
-6.50881
-3.525
-1.31241
-4.41663
-6.7667
-3.71439
-6.73352
-5.88134
-3.44332
-8.04701
-7.54191
-6.12046
-3.33119
-2.67582
-4.0763
-8.30148
-6.32598
-7.35732
-5.47507
-10.6831
-14.6021
-11.3033
-2.64242
-6.16661
-5.04966
-10.8005
-11.489
-14.5548
-14.5496
-1.71433
-8.89875
-0.547945
-9.21076
-9.75167
-5.31085
-8.06354
-2.98123
-12.5562
-12.4642
-11.6617
-0.715171
-6.39025
-14.0479
-2.11449
-4.58654
-4.87626
-2.68274
-7.18661
-13.7094
-13.9625
-5.89906
-12.4628
-4.35574
-13.2742
-6.81416
-3.37368
-1.48903
-7.3886
-2.55787
-12.4186
-6.31509
-4.28433
-9.70498
-3.81239
-7.72499
-9.96462
-7.68998
-7.17402
-4.08832
-3.23323
-2.77349
-4.47406
-9.17224
-7.15961
-6.78302
-8.55554
-7.36357
-5.53836
-5.04207
-11.4533
-3.18956
-11.5316
-5.2726
-5.58508
-2.32852
-5.49921
-12.0644
-15.0373
-15.0389
-7.49533
-3.66076
-6.88366
-11.6753
-2.88149
-3.77968
-13.1583
-9.58878
-10.6959
-9.83981
-8.38607
-4.45414
-6.9692
-6.95799
-11.8413
-3.22145
-13.4427
-4.28637
-1.57453
-9.39464
-6.2263
-11.576
-4.58952
-8.75013
-6.87203
-2.49165
-4.46517
-5.20733
-9.0547
-7.56012
-2.33293
-3.82187
-6.02197
-2.48787
-8.31819
-7.38059
-6.68559
-3.5845
-8.68782
-3.37672
-14.1117
-7.0639
-8.28662
-5.01986
-7.93261
-1.01624
-4.87175
-12.6107
-2.78712
-14.0166
-6.63106
-10.0446
-3.12872
-5.79379
-3.41866
-12.9421
-4.23107
-2.08924
-11.8152
-2.97569
-8.69718
-9.94863
-5.93564
-3.98836
-6.21156
-3.6117
-1.2767
-4.24897
-1.49559
-12.0868
-3.49495
-5.7462
-1.16266
-11.1885
-8.68501
-3.45016
-4.5649
-8.22719
-10.5771
-1.85897
-4.49504
-8.81059
-6.56436
-8.5625
-8.77933
-3.57979
-8.89206
-4.20377
-9.86882
-11.4236
-12.4326
-6.48526
-5.17476
-8.95375
-12.5955
-13.7361
-4.65521
-11.7182
-1.70332
-12.981
-11.8837
-13.2016
-6.48624
-4.45994
-7.10282
-7.9384
-5.31207
-5.85708
-5.3629
-7.43305
-5.14498
-6.24103
-9.82773
-10.266
-6.03573
-4.68025
-9.50552
-12.0969
-10.7431
-2.63367
-10.5476
-7.00568
-12.477
-9.60502
-4.30176
-3.26635
-6.89781
-1.09525
-14.2254
-3.70263
-13.8008
-4.00252
-7.8683
-12.9457
-6.63584
-9.85842
-14.2086
-13.4007
-11.8923
-6.45361
-4.3001
-5.11618
-1.77137
-6.5667
-6.01338
-7.04377
-7.15485
-6.47036
-11.3992
-9.44084
-10.4579
-4.85445
-5.20006
-6.60371
-5.7111
-4.46992
-5.13489
-12.2122
-2.57762
-2.78409
-5.96902
-0.281787
-10.317
-5.1885
-2.04656
-5.92656
-4.67223
-1.88539
-13.6227
-2.19419
-7.03806
-15.4477
-15.454
-5.23627
-3.8736
-4.63616
-12.4799
-2.11141
-7.92835
-7.4622
-12.1965
-2.91529
-6.51317
-6.61171
-5.692
-14.0698
-4.09735
-10.1279
-5.71178
-11.1471
-12.2241
-6.63895
-8.93007
-14.7863
-14.7732
-5.39107
-5.30896
-6.04873
-5.77831
-2.11603
-13.7515
-13.531
-4.58522
-4.5237
-5.70337
-2.58003
-3.62671
-13.4331
-14.423
-6.55524
-1.63796
-13.3982
-5.45604
-14.0179
-6.41271
-10.1956
-6.31607
-11.8937
-12.3236
-4.84263
-9.01033
-4.25761
-6.78796
-7.56786
-6.02466
-8.47576
-7.69111
-5.65158
-4.43314
-12.6299
-8.9762
-3.20841
-7.82652
-0.661109
-10.2368
-10.8592
-5.13326
-12.5548
-9.59892
-1.57286
-8.12999
-5.15682
-5.42681
-12.8319
-4.17827
-6.90085
-4.54502
-2.96952
-2.86405
-5.09046
-3.75529
-2.96412
-13.8415
-9.59514
-5.74281
-5.3983
-7.94645
-0.977675
-4.37479
-3.66208
-7.75098
-12.7845
-3.95318
-6.63253
-6.87775
-6.15302
-5.97086
-6.80369
-3.97003
-6.58416
-4.53649
-7.3412
-5.98787
-6.77661
-8.57809
-9.98998
-5.45894
-9.65051
-6.89844
-7.31428
-5.1382
-1.92271
-8.20948
-9.24607
-8.41074
-6.46315
-9.24676
-9.14804
-2.72719
-3.81198
-5.2804
-5.30439
-4.70195
-9.89974
-6.67811
-11.0291
-10.4375
-6.20768
-11.5219
-3.97183
-1.06971
-4.03881
-13.4397
-2.36608
-4.9852
-4.19884
-4.07204
-11.691
-6.27377
-2.13821
-10.6613
-3.40933
-7.35141
-5.67089
-3.86209
-13.5533
-3.43024
-6.871
-12.9577
-8.26432
-2.26996
-12.0589
-6.57951
-5.44146
-8.97854
-3.46337
-2.08299
-2.50375
-12.1044
-5.83023
-0.482215
-7.60055
-4.29851
-5.19095
-14.673
-14.6759
-4.31501
-8.92832
-11.1223
-1.9296
-13.0504
-5.80565
-6.44063
-14.4954
-4.93443
-13.05
-4.85804
-4.86059
-4.40983
-7.01901
-13.9328
-6.14393
-10.8861
-12.6796
-6.48196
-5.93616
-7.80077
-4.68479
-8.38894
-4.34323
-9.40313
-10.4084
-12.9252
-10.5743
-7.27362
-10.4449
-3.51561
-12.0652
-5.55433
-9.03239
-14.229
-6.45747
-11.179
-5.83028
-2.80844
-9.22219
-12.7496
-12.4291
-14.2689
-5.48303
-13.5851
-1.24166
-2.96076
-6.95503
-8.02791
-4.62918
-8.27893
-4.88783
-13.2375
-14.9971
-3.10917
-9.80339
-14.2937
-5.83476
-9.63891
-10.8217
-6.77253
-4.5011
-10.9753
-12.8985
-6.26496
-10.8064
-2.4481
-9.1621
-5.19786
-8.42892
-1.52272
-11.8498
-3.12172
-1.91939
-5.7186
-9.03232
-6.81536
-14.1634
-2.69636
-4.15904
-4.44534
-1.9502
-2.53451
-4.87819
-3.52384
-5.93692
-15.0081
-10.4496
-1.76813
-13.8297
-10.6143
-9.04404
-8.12943
-5.98534
-6.88284
-6.66797
-2.27996
-13.0295
-4.15633
-10.474
-12.8994
-10.7949
-6.01285
-12.4449
-7.20041
-7.67958
-6.21256
-4.5982
-9.94052
-7.52633
-1.07977
-1.07168
-14.2946
-3.72349
-12.5785
-10.0852
-11.1825
-3.81794
-14.5954
-7.70442
-7.35005
-2.82053
-6.84298
-7.57208
-14.3227
-15.3241
-15.3237
-5.46402
-14.6034
-8.3475
-7.32826
-7.0369
-8.38208
-6.54627
-3.24313
-3.50271
-14.1193
-4.65999
-7.71977
-7.29575
-11.0755
-3.22118
-4.86335
-5.28051
-4.74934
-7.69759
-8.32482
-6.65758
-6.52422
-4.02684
-11.1888
-12.0297
-12.2068
-12.651
-11.0397
-11.7077
-2.39534
-5.00445
-4.56112
-3.72509
-3.58803
-3.93703
-9.16454
-0.0567214
-3.04366
-0.675342
-4.03879
-11.5426
-1.47428
-10.3083
-6.03839
-8.18565
-2.15487
-7.88826
-6.37448
-3.41884
-5.38211
-11.0637
-4.75879
-8.55313
-5.96485
-3.76246
-5.64023
-13.8677
-10.1618
-1.4451
-11.3677
-7.36844
-3.36578
-5.59136
-3.95752
-7.58695
-6.99435
-5.62845
-8.73255
-13.7802
-1.32943
-9.36471
-11.5897
-6.26205
-6.6689
-13.5829
-8.42823
-5.76949
-2.53995
-7.68133
-9.95393
-7.04912
-15.0645
-15.0429
-5.16544
-4.71041
-5.99713
-7.91749
-6.2278
-4.04792
-10.0782
-5.98078
-1.33542
-4.32963
-6.25544
-9.51674
-9.49464
-2.56254
-11.5536
-13.5335
-4.73637
-14.0624
-2.50481
-13.0385
-4.18227
-13.2786
-4.31227
-12.0663
-2.58617
-1.6028
-6.08057
-1.87713
-5.87169
-3.78244
-7.27684
-6.42155
-11.7844
-4.73631
-6.4387
-11.5832
-5.62818
-13.662
-14.2964
-3.0411
-4.8477
-9.89201
-10.3448
-14.4255
-3.69865
-5.5458
-10.5928
-3.2983
-6.59286
-3.13596
-12.9796
-6.11597
-13.4856
-5.18797
-2.27117
-2.42615
-12.2485
-12.0999
-2.94295
-1.61631
-10.222
-7.57494
-4.88458
-12.7483
-7.55057
-2.88335
-13.8444
-7.19197
-11.917
-6.22986
-5.90703
-5.9195
-0.630526
-2.6235
-0.533403
-12.5779
-3.47032
-4.80353
-3.7464
-1.40866
-4.95693
-6.88541
-2.85195
-0.599254
-7.34939
-5.26271
-4.9324
-7.68807
-0.40541
-6.67977
-5.71595
-3.92987
-12.1854
-14.235
-6.33349
-8.77278
-3.8878
-4.70619
-9.07222
-6.77961
-5.1301
-4.33616
-7.71876
-4.52921
-8.29851
-5.11377
-6.01948
-10.9822
-4.48178
-7.53124
-0.826442
-3.32975
-13.2319
-14.4527
-3.90082
-5.57413
-6.77269
-5.0003
-5.44388
-8.99863
-2.59205
-6.58349
-4.70047
-7.08502
-4.87621
-2.82308
-7.11065
-8.22987
-0.285748
-3.53173
-6.61015
-10.4336
-9.93177
-5.1041
-5.17093
-13.2332
-4.42296
-12.0272
-5.1161
-13.0607
-9.08751
-12.7572
-5.93103
-0.254506
-6.63785
-5.28854
-9.47591
-5.76198
-7.98831
-2.19717
-6.66085
-5.64147
-1.14327
-6.358
-9.93754
-7.92664
-5.93035
-1.68043
-4.82653
-11.623
-7.09707
-14.4204
-3.35428
-3.049
-8.04673
-6.5474
-11.7085
-3.58704
-4.91729
-4.66137
-10.8181
-7.03908
-3.90271
-6.99271
-6.16189
-13.7822
-13.8188
-10.3724
-4.00475
-6.67838
-11.6861
-6.64173
-8.03099
-11.0711
-2.24265
-7.60809
-1.39282
-1.67412
-4.30985
-2.28752
-3.74954
-5.70618
-2.35688
-9.08489
-2.25621
-9.41561
-5.25683
-5.45992
-12.1858
-8.25205
-5.47753
-6.27205
-6.96762
-13.9986
-2.94396
-2.32854
-2.15245
-11.1577
-5.7369
-9.80418
-0.148467
-13.371
-2.97029
-10.3765
-11.4144
-5.39025
-6.09034
-7.66698
-9.69561
-14.5678
-8.65874
-6.20608
-14.6489
-9.56656
-13.3383
-5.27082
-10.5654
-12.8499
-7.96106
-6.18002
-2.89062
-14.4146
-8.54237
-10.3542
-3.30515
-7.13726
-11.4832
-4.50193
-8.05467
-4.89592
-7.3856
-3.66032
-11.2825
-8.14222
-1.74503
-12.5899
-10.4791
-5.32304
-4.34191
-0.836605
-6.51501
-2.75479
-5.67179
-7.70463
-14.4382
-11.4785
-3.20739
-2.38121
-3.33681
-11.6724
-3.69516
-7.86661
-2.46781
-6.61984
-11.3235
-5.83083
-13.8264
-12.4324
-12.912
-9.41806
-7.1675
-5.53151
-4.72598
-3.28996
-11.1564
-2.22072
-6.67013
-6.7229
-3.89883
-11.4317
-6.12719
-5.91909
-11.063
-10.9599
-0.409197
-11.067
-4.18925
-3.34048
-6.38696
-4.32425
-10.4502
-5.11216
-7.23264
-4.37452
-1.38657
-3.11765
-6.55814
-5.46655
-8.54118
-6.25047
-5.95929
-1.21439
-10.3985
-6.84869
-9.40677
-9.10831
-5.7179
-6.51618
-13.2348
-8.63547
-7.14635
-3.79478
-3.9712
-12.8096
-9.88808
-12.9234
-10.9383
-12.5611
-3.81376
-3.4899
-5.51526
-3.7222
-2.84597
-12.3585
-5.19521
-9.72543
-3.023
-3.28154
-9.2667
-10.8409
-4.39834
-10.9344
-6.2226
-5.23093
-11.4169
-12.3355
-14.3332
-5.78754
-7.39527
-7.20606
-5.04557
-10.5861
-1.74091
-13.9383
-14.1646
-4.51797
-11.2992
-11.7664
-4.03737
-13.0973
-3.20606
-1.69321
-5.89401
-6.60279
-4.73528
-3.50167
-9.30502
-7.27594
-6.40694
-5.25437
-8.35427
-12.6257
-11.9017
-4.48173
-10.2892
-3.88519
-14.1687
-2.99329
-8.06976
-7.52863
-7.23547
-5.13106
-7.89214
-6.07107
-13.5198
-3.53126
-5.22205
-8.97
-13.8384
-3.22584
-8.74046
-6.1581
-8.63313
-6.86255
-4.82739
-12.2791
-3.51056
-5.64363
-9.74615
-0.878391
-6.6331
-12.2165
-11.7793
-5.96931
-11.6881
-9.79455
-7.72069
-4.69915
-4.87553
-4.23199
-11.8604
-6.04173
-14.0656
-4.03483
-6.28113
-4.32584
-3.41764
-5.96955
-3.49769
-11.2392
-1.00017
-11.5896
-8.88251
-10.2844
-5.632
-9.39683
-1.70011
-3.03428
-8.18993
-3.48456
-2.25528
-3.06816
-3.27832
-5.12089
-8.39591
-5.55405
-13.1937
-10.5372
-13.1969
-3.61895
-0.955592
-7.86924
-4.06267
-10.65
-12.3689
-1.76693
-5.11975
-6.78673
-3.75382
-0.450644
-6.36343
-4.04852
-11.0836
-13.6186
-8.5876
-9.27898
-6.81153
-2.79091
-14.1975
-10.5844
-13.9404
-4.92416
-6.22431
-5.10356
-4.17918
-7.04032
-11.8051
-4.1863
-2.89429
-13.6959
-11.8523
-2.8983
-8.47349
-14.0643
-6.86099
-14.7094
-4.85268
-9.45925
-13.2854
-7.21517
-10.3624
-7.05761
-3.9224
-5.35945
-13.2848
-4.46996
-3.47786
-8.67085
-3.80973
-5.49868
-11.1189
-6.99191
-6.04715
-6.21674
-9.05833
-13.7423
-7.8749
-4.66583
-3.44701
-4.96354
-9.56069
-6.71704
-13.2187
-5.65705
-7.36551
-3.05471
-9.47072
-4.65534
-12.3639
-4.55845
-3.19793
-3.05793
-7.26998
-11.0561
-10.9231
-3.73025
-6.62866
-4.57887
-9.58242
-3.68704
-13.9426
-2.14477
-2.11095
-13.7657
-6.89457
-2.629
-4.30204
-9.56414
-10.8941
-14.3472
-7.84675
-10.7787
-9.85481
-4.70991
-5.00599
-8.85107
-8.0518
-3.6152
-11.7464
-2.83395
-9.65288
-12.4086
-5.9423
-4.19264
-10.4855
-7.27938
-10.8578
-4.14475
-3.95877
-4.38174
-6.47521
-7.08754
-1.45447
-2.37327
-11.6311
-10.3274
-4.73098
-5.01134
-7.51189
-5.21077
-4.94967
-9.75166
-7.78583
-9.08608
-10.1507
-6.75365
-2.2502
-12.6131
-2.54432
-13.7557
-6.43806
-1.03365
-7.3821
-7.34866
-6.36167
-8.64655
-12.2348
-5.48759
-4.70068
-13.4137
-0.727042
-4.09003
-4.01453
-14.8565
-14.8538
-8.89476
-12.1386
-10.1806
-2.91166
-8.23983
-3.94855
-11.8599
-5.25831
-5.96657
-4.78112
-6.48273
-9.88565
-9.28962
-14.214
-5.7016
-6.21361
-5.72395
-3.07558
-1.84919
-6.18426
-0.734453
-5.85774
-3.77532
-4.49829
-5.22513
-8.33979
-11.3355
-9.69331
-8.79518
-12.9746
-1.69701
-13.24
-1.97719
-4.05176
-14.1135
-8.31714
-1.232
-2.00885
-12.8584
-9.93683
-9.15861
-11.3348
-7.59543
-13.945
-14.5488
-2.21855
-10.6685
-5.61543
-7.5124
-14.6257
-3.86677
-5.87696
-3.65193
-3.71932
-6.1811
-6.86016
-5.50878
-4.36684
-4.05559
-13.3333
-7.14915
-4.14805
-0.840058
-11.3853
-4.96431
-9.44589
-4.01715
-13.274
-6.76652
-1.37017
-6.57418
-2.47656
-13.4892
-3.61606
-5.08485
-5.33672
-3.22522
-5.41909
-1.43906
-1.61683
-5.67636
-2.88088
-6.01104
-2.63144
-6.29038
-3.98529
-5.88088
-6.92333
-4.9269
-1.78564
-6.34755
-6.38573
-9.99134
-11.5922
-11.0747
-9.09109
-7.70612
-5.82894
-7.02705
-7.13504
-6.90248
-0.521695
-5.42545
-13.203
-10.194
-2.48039
-6.71463
-9.09198
-5.57142
-12.1842
-5.43092
-3.33123
-6.70559
-8.58378
-13.5669
-8.15155
-2.32044
-6.59449
-6.19162
-1.01883
-13.081
-9.8761
-10.864
-2.23974
-13.7216
-5.84166
-10.7729
-5.36117
-9.85234
-4.05798
-7.83085
-12.6298
-4.22153
-4.22134
-11.3558
-1.39822
-1.17483
-8.28455
-6.2098
-13.2743
-8.16557
-4.57169
-8.05202
-3.43479
-6.226
-11.8991
-8.74621
-2.72359
-3.63579
-7.28545
-12.9964
-14.8249
-12.9359
-8.3284
-11.1443
-3.51594
-12.4879
-4.05329
-1.97376
-5.07448
-5.69556
-11.6505
-13.2627
-0.918646
-6.51433
-10.0008
-3.86452
-4.86317
-7.61517
-9.19406
-6.97732
-4.20052
-11.3345
-5.71202
-12.7086
-2.03144
-6.61155
-7.09079
-10.0038
-7.23389
-9.49364
-6.76523
-1.53481
-8.30876
-8.49756
-12.2822
-7.65315
-3.28344
-6.09788
-2.80562
-6.00273
-3.02827
-10.5893
-2.65548
-12.8031
-7.1119
-2.42418
-4.46737
-13.3498
-8.04793
-5.06512
-7.11724
-6.81453
-11.8597
-8.82989
-8.53205
-8.70575
-6.55908
-7.31399
-9.08927
-12.4208
-2.86022
-6.91124
-4.06724
-11.103
-11.7048
-8.77007
-5.15678
-5.00899
-14.3192
-6.68657
-15.309
-12.9219
-5.66548
-7.37202