<VTKFile type="UnstructuredGrid" version="0.1" byte_order="LittleEndian">
  <UnstructuredGrid>
    <Piece NumberOfPoints="23679" NumberOfCells="47236">
      <Points>
        <DataArray type = "Float64" NumberOfComponents="3" format="ascii">
-5 -7 0.0 
15.5 -7 0.0 
15.5 7 0.0 
-5 7 0.0 
7.63511 2.91639 0.0 
1.87049 1.67084 0.0 
-0.605974 -0.287769 0.0 
2.37337 -3.10656 0.0 
0.929906 2.48659 0.0 
0.824948 -0.0289232 0.0 
0.579762 -2.6174 0.0 
2.75639 -0.320238 0.0 
0.600589 -0.0279367 0.0 
0.809974 0.0358912 0.0 
4.52511 -0.0925724 0.0 
0.692729 -0.023898 0.0 
2.14598 1.71184 0.0 
4.47114 -0.725108 0.0 
2.94972 0.812693 0.0 
-2.51884 -5.20772 0.0 
0.933054 -0.00978829 0.0 
-3.39004 -0.0550254 0.0 
0.209319 0.0741243 0.0 
-0.14562 -1.1416 0.0 
0.16355 -0.0415655 0.0 
4.37129 -0.146188 0.0 
0.125896 0.0617342 0.0 
2.89507 -0.00321849 0.0 
0.117818 -0.0547525 0.0 
0.74577 -0.0190427 0.0 
1.20907 -2.59566 0.0 
7.05945 1.36908 0.0 
1.18414 0.837326 0.0 
-0.664239 0.00933663 0.0 
0.988285 -0.635056 0.0 
0.79931 -0.0154644 0.0 
-0.169857 -0.752454 0.0 
-0.535193 0.781979 0.0 
4.50646 0.336854 0.0 
0.675201 -0.447934 0.0 
4.33956 3.92927 0.0 
7.20401 -0.547152 0.0 
5.06202 0.761268 0.0 
-1.83764 -0.830466 0.0 
2.97447 -2.59497 0.0 
1.77447 -4.2029 0.0 
0.203756 0.0741702 0.0 
2.3905 -0.208726 0.0 
-2.38226 0.0491773 0.0 
1.57579 -4.90006 0.0 
0.892623 0.876713 0.0 
0.619187 0.0692661 0.0 
1.81524 2.22933 0.0 
3.20393 -0.375619 0.0 
0.560088 -0.0307549 0.0 
-4.00064 -1.06423 0.0 
4.1637 1.41296 0.0 
2.03909 0.577378 0.0 
3.97155 -0.451817 0.0 
-1.0713 0.305678 0.0 
1.24518 -0.853569 0.0 
5.30713 0.379083 0.0 
0.993214 0.00283989 0.0 
0.513972 -3.72515 0.0 
4.25372 1.90694 0.0 
0.87556 0.025233 0.0 
0.401296 0.0780688 0.0 
0.44761 -0.0359067 0.0 
-3.06259 -0.640688 0.0 
0.58449 -3.29242 0.0 
4.47137 0.702541 0.0 
-0.523713 -0.272593 0.0 
-0.477755 -0.422453 0.0 
0.570246 -0.533547 0.0 
0.538433 -0.0310055 0.0 
5.2741 -1.01059 0.0 
2.21102 -1.39328 0.0 
1.30783 -0.274121 0.0 
4.18709 -1.48886 0.0 
-1.19726 -3.28581 0.0 
-0.0359698 -1.75399 0.0 
0.617039 -0.0263973 0.0 
5.83653 0.150199 0.0 
5.57946 0.224905 0.0 
0.377841 -0.038928 0.0 
1.38254 1.36675 0.0 
2.58372 -1.06479 0.0 
4.70454 -3.6075 0.0 
0.551438 0.113173 0.0 
0.532912 -0.0384617 0.0 
-0.392031 -0.729994 0.0 
4.38556 1.53498 0.0 
-1.34387 -2.96962 0.0 
4.73748 -0.295427 0.0 
5.13252 -2.84762 0.0 
5.34987 1.08334 0.0 
0.326684 0.0802051 0.0 
1.0681 0.191919 0.0 
0.292684 0.0800176 0.0 
-0.288073 -0.693253 0.0 
0.850052 0.029488 0.0 
7.72674 -2.22661 0.0 
5.73402 0.253504 0.0 
3.27298 3.73283 0.0 
2.31769 -0.889324 0.0 
3.24694 -2.57408 0.0 
-0.795775 -5.8192 0.0 
0.667923 -0.0361302 0.0 
0.835769 0.0314682 0.0 
4.69839 -1.50939 0.0 
4.91709 3.01814 0.0 
0.151849 -0.0409087 0.0 
3.55148 0.264681 0.0 
0.842117 -0.794382 0.0 
2.65591 1.43349 0.0 
0.932811 0.0144733 0.0 
-0.764917 -0.926758 0.0 
3.60734 -0.915315 0.0 
-0.605852 0.649115 0.0 
5.76621 -0.263827 0.0 
3.08877 -0.924843 0.0 
0.899825 -0.00795866 0.0 
6.80384 1.26814 0.0 
3.19847 -0.826277 0.0 
0.0166341 -0.0962489 0.0 
3.983 -1.51439 0.0 
5.81155 1.05052 0.0 
0.403773 -0.0376754 0.0 
4.06583 -0.737319 0.0 
3.85222 3.16404 0.0 
7.27994 -0.917065 0.0 
7.01199 -1.44503 0.0 
5.44634 0.7472 0.0 
5.43495 -0.0201864 0.0 
1.51213 -0.834065 0.0 
1.97076 0.806002 0.0 
0.634487 0.0595385 0.0 
-0.572414 -4.29099 0.0 
1.8826 -0.733417 0.0 
0.759381 -0.180619 0.0 
0.40132 0.0778474 0.0 
0.23454 -0.0430222 0.0 
-0.802406 2.95957 0.0 
0.691963 0.0549995 0.0 
5.47277 -0.740356 0.0 
14.1487 4.94071 0.0 
0.0736498 -1.30758 0.0 
-3.24273 0.882011 0.0 
1.37104 -0.876055 0.0 
-0.483647 -0.194829 0.0 
2.83565 1.06937 0.0 
5.52957 -1.21731 0.0 
0.947149 -0.00912481 0.0 
-0.408161 -0.611461 0.0 
-0.824132 1.91234 0.0 
-0.28194 0.734853 0.0 
-2.58987 -0.112571 0.0 
5.39673 0.0810302 0.0 
0.347037 -1.34491 0.0 
1.28521 2.08402 0.0 
0.220369 -0.0424097 0.0 
-0.490215 0.575937 0.0 
1.64934 -1.3049 0.0 
0.153085 0.0664047 0.0 
-0.251695 -2.55503 0.0 
0.826156 -0.0139773 0.0 
3.35673 0.186652 0.0 
4.62807 -2.39408 0.0 
-1.05781 -1.39579 0.0 
-2.54531 4.21509 0.0 
1.60336 1.51116 0.0 
0.713093 0.0498095 0.0 
0.643534 0.0642145 0.0 
-3.64101 4.81173 0.0 
-1.26922 -3.94313 0.0 
-0.342655 -1.12768 0.0 
3.30326 0.952175 0.0 
5.64264 0.331249 0.0 
1.34559 -0.214642 0.0 
1.60527 0.321358 0.0 
0.328683 -0.0401423 0.0 
3.81728 0.37784 0.0 
4.37562 0.758715 0.0 
5.5831 -1.82905 0.0 
-1.49688 0.101849 0.0 
-1.70027 -0.343758 0.0 
0.937041 0.0136815 0.0 
5.60623 1.42522 0.0 
-1.23169 -0.42816 0.0 
1.69627 2.52442 0.0 
1.36245 -1.5082 0.0 
1.25107 -3.80948 0.0 
2.74679 0.528168 0.0 
5.36614 -1.19177 0.0 
0.605019 1.16677 0.0 
-4.58423 -1.62108 0.0 
-2.02651 2.34708 0.0 
3.99339 3.63024 0.0 
-1.36142 -0.0750085 0.0 
5.19766 -0.482867 0.0 
-3.85513 -1.43107 0.0 
0.966422 0.00919783 0.0 
0.247834 0.0870881 0.0 
-0.465649 -0.817954 0.0 
4.29025 4.26714 0.0 
1.18312 -0.431176 0.0 
9.21986 0.0258833 0.0 
5.39136 -0.625475 0.0 
5.56604 0.611257 0.0 
1.96388 -1.61685 0.0 
0.196106 -0.0423443 0.0 
2.93186 0.364486 0.0 
5.88518 0.822328 0.0 
0.824138 -0.0139123 0.0 
-0.47228 -0.526413 0.0 
0.477118 -0.0338206 0.0 
-4.64673 -2.62107 0.0 
4.10712 -0.887195 0.0 
0.710355 0.0501717 0.0 
1.64936 -0.864917 0.0 
-1.61346 -3.22424 0.0 
0.0092848 0.0284272 0.0 
7.26993 2.53793 0.0 
1.1048 2.83071 0.0 
10.1588 1.30502 0.0 
-0.263385 -0.26391 0.0 
13.7005 7 0.0 
0.52333 0.0703707 0.0 
4.58595 -1.29531 0.0 
5.62067 -0.188463 0.0 
0.799738 -0.0147854 0.0 
11.9625 -2.20661 0.0 
5.40435 0.619553 0.0 
3.28687 -1.45096 0.0 
0.458966 0.0872446 0.0 
5.51568 -0.596029 0.0 
-1.63011 3.37507 0.0 
0.293181 -0.0414659 0.0 
0.865321 -2.71027 0.0 
0.786038 -0.0158333 0.0 
0.0736186 0.0492692 0.0 
4.13993 -2.76136 0.0 
0.881421 -0.0921271 0.0 
0.266317 -3.38104 0.0 
4.88629 -0.852705 0.0 
0.437008 0.076424 0.0 
3.8816 4.12562 0.0 
7.92184 -0.0908268 0.0 
0.176354 -0.0480078 0.0 
-0.662142 0.143724 0.0 
6.26015 0.128606 0.0 
0.915518 -0.00670685 0.0 
3.62021 -1.04763 0.0 
1.34876 0.720027 0.0 
0.982357 -3.49725 0.0 
0.663709 0.0566737 0.0 
5.3066 -0.705713 0.0 
-0.944514 -3.61431 0.0 
1.79294 -0.661223 0.0 
-0.342215 2.27409 0.0 
5.88842 -0.367403 0.0 
0.211839 -0.0420107 0.0 
0.654413 -0.0369233 0.0 
3.68564 6.54289 0.0 
5.00064 1.8515 0.0 
0.69027 0.0546811 0.0 
1.12166 0.441142 0.0 
7.31715 -3.60167 0.0 
2.79958 1.64327 0.0 
0.433465 0.0764782 0.0 
0.584196 0.0652607 0.0 
0.0636322 -0.695974 0.0 
-1.81416 1.63551 0.0 
0.74075 0.0465749 0.0 
2.69342 -1.49048 0.0 
4.86008 -1.00044 0.0 
0.822907 -0.0142337 0.0 
-0.164664 0.307939 0.0 
4.48127 5.51069 0.0 
4.4895 -4.79993 0.0 
5.37438 1.55243 0.0 
0.123991 1.28664 0.0 
6.41782 -0.499678 0.0 
3.16721 -0.70129 0.0 
1.99155 -0.729552 0.0 
4.69954 4.16905 0.0 
-1.91695 -2.36563 0.0 
8.09216 1.16816 0.0 
0.242046 0.0802658 0.0 
2.34355 2.47663 0.0 
2.72841 -0.285972 0.0 
13.5916 6.05949 0.0 
1.64671 4.40597 0.0 
3.03209 1.84093 0.0 
-0.498111 0.662759 0.0 
0.765551 -2.10462 0.0 
5.25655 0.61914 0.0 
6.04759 -2.75505 0.0 
1.12471 -0.237361 0.0 
6.40695 -2.14103 0.0 
4.37139 0.883681 0.0 
0.240004 -0.042139 0.0 
-4.55867 -4.42627 0.0 
-1.09286 3.96435 0.0 
-1.07351 0.572111 0.0 
3.73338 -0.828021 0.0 
-0.766762 -0.403459 0.0 
0.402752 -1.68281 0.0 
0.925255 0.0164317 0.0 
0.88786 -0.943606 0.0 
0.505244 -0.025873 0.0 
-0.299243 0.0389379 0.0 
3.36416 0.723434 0.0 
0.636773 1.7916 0.0 
0.0435288 1.09333 0.0 
0.74756 2.65039 0.0 
5.12608 -1.02106 0.0 
3.05399 0.794214 0.0 
3.3685 -2.29577 0.0 
9.40833 4.18552 0.0 
0.726496 1.10014 0.0 
-1.43587 -0.265452 0.0 
1.53809 -0.965095 0.0 
3.65342 -1.2467 0.0 
3.58193 2.86195 0.0 
1.58453 1.05649 0.0 
0.69113 -0.0216886 0.0 
4.67304 -0.737386 0.0 
2.403 -2.53676 0.0 
-0.883615 -1.03632 0.0 
0.570985 0.067201 0.0 
4.5489 1.01634 0.0 
1.30188 0.95494 0.0 
4.78484 -2.98767 0.0 
0.647276 3.74647 0.0 
1.64058 -1.98991 0.0 
5.60464 1.66025 0.0 
-2.46641 -2.76999 0.0 
0.0236771 0.0292808 0.0 
1.83737 -2.85625 0.0 
0.712397 -0.0207427 0.0 
-0.929233 -3.15638 0.0 
5.62429 -0.0217768 0.0 
0.696715 -0.0236006 0.0 
4.31467 0.462465 0.0 
1.90518 -1.00498 0.0 
3.8123 -0.317197 0.0 
-1.40698 0.43063 0.0 
8.12686 0.163945 0.0 
0.0912505 -0.0517404 0.0 
0.360402 0.0788181 0.0 
0.766222 5.08386 0.0 
0.543306 0.227627 0.0 
0.768677 -0.887089 0.0 
13.8069 6.49329 0.0 
3.14545 -0.527242 0.0 
3.00213 0.685174 0.0 
-3.26851 -1.17579 0.0 
0.326091 -0.0407782 0.0 
-0.350969 -1.28117 0.0 
-1.34372 -4.38367 0.0 
-1.47047 0.274883 0.0 
8.69891 -0.824176 0.0 
0.572752 0.0666296 0.0 
3.02391 1.56815 0.0 
0.546825 -0.0304958 0.0 
7.53034 -2.92118 0.0 
0.862614 -3.9233 0.0 
7.46433 -0.686568 0.0 
0.435695 0.0763326 0.0 
-0.291216 -0.600905 0.0 
0.958024 -0.00418663 0.0 
0.996359 0.00209859 0.0 
-3.04054 -1.35802 0.0 
7.86523 -1.29492 0.0 
0.824153 0.0339519 0.0 
-2.0843 -1.39076 0.0 
2.0242 4.23744 0.0 
6.10554 -1.09258 0.0 
0.070474 0.0518922 0.0 
0.253412 0.0852338 0.0 
4.90662 -3.37133 0.0 
5.3389 -1.37998 0.0 
8.18441 -5.4394 0.0 
4.74018 -1.11041 0.0 
-1.45792 -1.69797 0.0 
-0.658439 1.28669 0.0 
-1.47154 1.02941 0.0 
0.548603 -1.30682 0.0 
-4.28372 4.01846 0.0 
0.597388 -0.031556 0.0 
0.976283 3.91053 0.0 
-1.97604 3.44687 0.0 
-0.823498 -1.2495 0.0 
-0.676338 -0.322971 0.0 
0.0194499 -2.00073 0.0 
6.06625 2.2173 0.0 
4.77636 1.32682 0.0 
3.5286 -1.40716 0.0 
2.2348 6.10147 0.0 
4.3501 1.14584 0.0 
-0.374853 0.997283 0.0 
0.331239 -0.0398749 0.0 
2.92416 0.944765 0.0 
-1.08711 -0.79613 0.0 
-2.10643 0.811211 0.0 
10.0853 -2.20029 0.0 
9.19723 -1.4685 0.0 
-3.63493 -2.23583 0.0 
9.13289 -4.40814 0.0 
0.13646 -0.0401233 0.0 
3.73879 -1.49966 0.0 
1.16246 1.31001 0.0 
1.76621 -0.985528 0.0 
0.279409 0.0783782 0.0 
4.49882 0.813878 0.0 
0.0773295 0.0501322 0.0 
-1.7711 -2.7915 0.0 
2.21785 -2.83793 0.0 
1.9729 0.35934 0.0 
6.07917 0.172121 0.0 
-1.06801 -1.19434 0.0 
-0.742511 -0.787541 0.0 
4.55801 -0.996424 0.0 
10.0032 -3.21238 0.0 
4.23955 3.27 0.0 
4.4588 0.213546 0.0 
-3.41169 -1.50587 0.0 
0.374392 0.944982 0.0 
[...]
<PointData>
  <DataArray type = "Float64" Name="VitesseP1" NumberOfComponents="3" format="ascii">
1 0 0.0 
1.00064 0 0.0 
0.999392 0 0.0 
1 0 0.0 
0.9973 -0.000197721 0.0 
1.00588 -0.0064357 0.0 
0.983627 -0.00270205 0.0 
1.00129 -0.00131852 0.0 
1.00667 -0.000971047 0.0 
0.623885 0.0383859 0.0 
1.00107 -0.00122165 0.0 
1.00004 -0.00435057 0.0 
0.0114859 0.000355777 0.0 
0 0 0.0 
0.944883 -0.00412339 0.0 
0.0873467 0.00544435 0.0 
1.00453 -0.00616538 0.0 
1.00261 -0.00387143 0.0 
1.00096 -0.00728418 0.0 
1.00009 -0.000178605 0.0 
0.148617 0.00999704 0.0 
0.999512 0.00130962 0.0 
0.0777595 0.00948054 0.0 
1.00098 -0.00595394 0.0 
1.2538e-08 -4.81422e-10 0.0 
0.999226 -0.00442392 0.0 
3.13228e-08 6.97099e-09 0.0 
0.848581 -0.00487006 0.0 
1.14006 -0.113028 0.0 
0.0181517 0.0016973 0.0 
1.00117 -0.00119044 0.0 
0.994167 -0.000381396 0.0 
1.01429 -0.0173043 0.0 
0.98251 0.00812906 0.0 
1.00294 0.00809408 0.0 
0.0131644 0.000622459 0.0 
0.999458 -0.0120372 0.0 
1.00308 0.0185507 0.0 
0.999699 -0.00841984 0.0 
1.01693 0.0121323 0.0 
0.99992 -0.00203192 0.0 
1.00912 0.0049922 0.0 
0.997389 -0.00783948 0.0 
0.997283 0.000664775 0.0 
1.0015 -0.00160088 0.0 
1.00108 -0.000936787 0.0 
0.174297 0.0175658 0.0 
0.998711 -0.00479936 0.0 
0.998386 0.00262296 0.0 
1.00098 -0.000686085 0.0 
1.02329 -0.013444 0.0 
0.412458 -0.0406461 0.0 
1.00513 -0.0038823 0.0 
1.00111 -0.00414336 0.0 
0.0308024 0.0018777 0.0 
0.999823 0.000417629 0.0 
0.999532 -0.00592604 0.0 
1.00058 -0.0114338 0.0 
1.00204 -0.00400711 0.0 
0.993587 0.00909446 0.0 
1.00055 0.00308491 0.0 
0.996385 -0.00978039 0.0 
-3.03266e-09 -6.42038e-10 0.0 
1.00077 -0.000831216 0.0 
0.999596 -0.00497158 0.0 
-0.000814213 0.000153393 0.0 
3.22278e-08 -4.26762e-10 0.0 
0 0 0.0 
0.99919 0.00105938 0.0 
1.00084 -0.000974916 0.0 
0.999298 -0.00751885 0.0 
0.980958 -0.0046689 0.0 
0.986241 -0.00892689 0.0 
1.01756 0.00490868 0.0 
0 0 0.0 
1.0044 -0.0034814 0.0 
1.00024 -0.00162028 0.0 
0.987861 0.00608187 0.0 
1.00238 -0.00274479 0.0 
1.00009 -0.000742845 0.0 
1.00109 -0.00269885 0.0 
0 0 0.0 
0.992675 -0.0115807 0.0 
0.998512 -0.0104371 0.0 
3.41205e-08 1.56363e-09 0.0 
1.0096 -0.00824996 0.0 
1.00017 -0.0025523 0.0 
1.00232 -0.000883045 0.0 
1.13201 -0.0690597 0.0 
0.387831 0.0202507 0.0 
0.99493 -0.0095641 0.0 
0.999196 -0.00566638 0.0 
0.999894 -0.000799596 0.0 
1.00247 -0.00470961 0.0 
1.00286 -0.00109323 0.0 
0.996389 -0.00650992 0.0 
0.116222 0.000465074 0.0 
0.996452 -0.061465 0.0 
0.148933 0.00371319 0.0 
0.995706 -0.0119867 0.0 
-9.64724e-10 4.79684e-12 0.0 
1.00326 0.00147845 0.0 
0.994729 -0.011493 0.0 
1.00113 -0.00217952 0.0 
0.999474 -0.00239717 0.0 
1.00165 -0.00166247 0.0 
1.00036 -0.000202954 0.0 
0.594924 0.0344581 0.0 
0 0 0.0 
1.00306 -0.00267866 0.0 
0.999021 -0.00287839 0.0 
0 0 0.0 
1.00049 -0.00693018 0.0 
1.00582 0.00434796 0.0 
1.0023 -0.00669511 0.0 
0 0 0.0 
0.995446 -0.00391773 0.0 
1.00161 -0.00337042 0.0 
0.999042 0.018981 0.0 
1.00586 -0.00733792 0.0 
1.00089 -0.00318918 0.0 
0 0 0.0 
0.993448 -0.00116241 0.0 
1.00101 -0.00338503 0.0 
0.994919 -0.170469 0.0 
1.00214 -0.00270125 0.0 
0.994506 -0.0058052 0.0 
0 0 0.0 
1.00209 -0.0036995 0.0 
1.00051 -0.0030007 0.0 
1.00592 0.00369485 0.0 
1.00521 0.00141563 0.0 
0.995566 -0.0078629 0.0 
0.948239 -0.0106797 0.0 
0.99872 0.00132815 0.0 
1.00271 -0.0112937 0.0 
0 0 0.0 
1.0004 -0.00054068 0.0 
0.997903 -0.00118153 0.0 
1.01674 0.0357541 0.0 
0 0 0.0 
0.0477172 0.000484806 0.0 
1.0035 0.00257548 0.0 
0.0616273 -0.00763531 0.0 
1.00537 -0.00448995 0.0 
0.999333 0.000206354 0.0 
1.00236 -0.00432714 0.0 
0.999773 0.00195224 0.0 
0.999662 0.00211977 0.0 
0.976425 -0.00315742 0.0 
1.00153 -0.00719329 0.0 
1.0048 -0.00260847 0.0 
0.16022 0.0106176 0.0 
0.992007 -0.0105502 0.0 
1.00482 0.00579828 0.0 
1.00884 0.0246483 0.0 
0.998656 0.0021103 0.0 
0.99515 -0.0141092 0.0 
1.00326 -0.00271443 0.0 
1.0075 -0.00315074 0.0 
7.96291e-09 -1.81846e-10 0.0 
0.998649 0.0235083 0.0 
1.00026 -0.000367866 0.0 
0 0 0.0 
1.00051 -0.00142608 0.0 
0.0251326 0.00191435 0.0 
1.00003 -0.00678673 0.0 
1.00269 -0.00167584 0.0 
0.99786 -0.00200143 0.0 
1.00071 0.00105896 0.0 
1.00737 -0.00726198 0.0 
0 0 0.0 
0.252557 -0.0273345 0.0 
1.00019 0.000477144 0.0 
1.00019 -0.000539818 0.0 
0.99924 -0.00591655 0.0 
1.00087 -0.00677576 0.0 
0.993191 -0.0098222 0.0 
0.985695 0.00365106 0.0 
0.996303 -0.0183288 0.0 
0 0 0.0 
1.00044 -0.00716589 0.0 
0.999459 -0.0073044 0.0 
1.00409 -0.00156568 0.0 
0.995613 0.0049276 0.0 
0.996228 0.00226728 0.0 
0 0 0.0 
0.996002 -0.00500788 0.0 
0.993743 0.0012936 0.0 
1.005 -0.00284228 0.0 
1.00123 -0.000347548 0.0 
1.00097 -0.000968255 0.0 
1.00035 -0.00774142 0.0 
1.00445 -0.00299743 0.0 
1.02116 -0.00166121 0.0 
0.999981 0.00010014 0.0 
1.00141 0.00324579 0.0 
1.00029 -0.00240359 0.0 
0.994198 0.00407223 0.0 
1.00395 -0.00489135 0.0 
0.999793 0.000318857 0.0 
-0.0125166 0.00254 0.0 
1.09436 0.0824972 0.0 
0.995668 -0.0076664 0.0 
1.00003 -0.00171654 0.0 
0.995168 0.00975696 0.0 
0.999534 0.00333794 0.0 
1.00582 -0.00533496 0.0 
0.995001 -0.00832834 0.0 
1.00067 -0.00124022 0.0 
2.00016e-08 -9.77417e-10 0.0 
1.00007 -0.00723607 0.0 
0.993647 -0.00642418 0.0 
0.0168591 0.00110491 0.0 
0.989334 -0.00926858 0.0 
0 0 0.0 
0.999996 1.46909e-05 0.0 
1.00223 -0.00351699 0.0 
0 0 0.0 
0.998695 0.000316196 0.0 
0.999954 -0.000631431 0.0 
0.689453 0.503559 0.0 
0.996795 -0.000502317 0.0 
1.00531 -0.00102346 0.0 
0.998864 0.00167132 0.0 
0.97336 -0.0219015 0.0 
0.999241 0 0.0 
0 0 0.0 
1.00291 -0.00300721 0.0 
0.995021 -0.00496621 0.0 
0 0 0.0 
1.00065 0.000996026 0.0 
0.995726 -0.00849158 0.0 
1.00133 -0.00259707 0.0 
0.85889 -0.0388181 0.0 
1.00509 -0.00424728 0.0 
1.0018 0.00198839 0.0 
1.7847e-08 8.17697e-10 0.0 
1.0011 -0.0011642 0.0 
0 0 0.0 
6.98225e-08 2.11106e-08 0.0 
1.00224 -0.00151564 0.0 
1.00109 0.0466203 0.0 
1.00072 -0.000917272 0.0 
1.00347 -0.00384628 0.0 
0 0 0.0 
1.00041 -0.00186336 0.0 
1.00056 0.00844744 0.0 
0.695856 -0.0260645 0.0 
0.984409 0.0129205 0.0 
0.982909 -0.00958828 0.0 
0 0 0.0 
1.0016 -0.00320471 0.0 
1.00918 -0.019307 0.0 
1.00094 -0.000990752 0.0 
0.00476657 -0.000576065 0.0 
1.00428 -0.00418054 0.0 
1.00024 -0.000707381 0.0 
0.99713 -0.000823662 0.0 
1.00623 0.00371656 0.0 
1.01209 -0.00705339 0.0 
0 0 0.0 
0.599308 0.0343729 0.0 
1.00038 -0.000211071 0.0 
0.998099 -0.00473028 0.0 
0.0427494 -0.00524132 0.0 
1.01158 -0.0356685 0.0 
1.00265 0.000429696 0.0 
1.00235 -0.00600599 0.0 
0 0 0.0 
8.10615e-09 -5.33244e-10 0.0 
1.00607 -0.0135545 0.0 
1.00127 0.00469482 0.0 
0.00310695 -0.000416884 0.0 
1.00076 -0.00216449 0.0 
1.00344 -0.0035381 0.0 
0.0267077 0.00159554 0.0 
0.989666 0.0597092 0.0 
0.999973 -0.000787134 0.0 
1.00196 -0.000515171 0.0 
0.996878 -0.00504214 0.0 
1.01582 0.00746622 0.0 
1.01407 -0.00223707 0.0 
1.00082 -0.00358374 0.0 
0.998108 -0.00172023 0.0 
0.999643 -0.00174238 0.0 
0.999461 -0.000541708 0.0 
0.995918 0.00244545 0.0 
0.553908 0.0405415 0.0 
1.00334 -0.00377032 0.0 
0.999749 -0.00444155 0.0 
0.999237 0.000101342 0.0 
1.00215 -0.00056867 0.0 
1.00196 -0.00544007 0.0 
1.00065 0.0214872 0.0 
1.00148 -0.00126514 0.0 
0.996398 -0.00862236 0.0 
1.00338 -0.000443777 0.0 
0.986638 0.0170828 0.0 
1.00417 -0.000122302 0.0 
0.999394 -0.00703593 0.0 
0 0 0.0 
1 -2.88223e-05 0.0 
1.00196 0.00132406 0.0 
0.996757 0.0105278 0.0 
1.00175 -0.00350959 0.0 
0.98914 -0.00173276 0.0 
1.00217 -0.0020052 0.0 
-2.66853e-08 4.22801e-09 0.0 
1.00443 0.00246093 0.0 
0 0 0.0 
0.952682 0.0172039 0.0 
1.00067 -0.00690729 0.0 
1.01159 -0.000336185 0.0 
1.01814 0.0121378 0.0 
1.00622 -0.000242835 0.0 
1.00396 -0.00344386 0.0 
1.00087 -0.00714495 0.0 
1.00164 -0.00184959 0.0 
0.998473 0.000290714 0.0 
1.02136 -0.0050992 0.0 
0.994931 0.0026434 0.0 
0.999396 0.000767811 0.0 
1.00166 -0.00295796 0.0 
1.00089 -0.00345836 0.0 
1.00753 -0.011689 0.0 
0 0 0.0 
1.00296 -0.00396006 0.0 
1.00123 -0.00148908 0.0 
0.99636 -0.00304755 0.0 
0.0282998 -0.00220588 0.0 
0.998878 -0.0068216 0.0 
1.01184 -0.0143208 0.0 
1.0026 -0.00118182 0.0 
1.0033 0.000117464 0.0 
1.00103 -0.00109963 0.0 
0.996519 -0.00441541 0.0 
0.999721 -0.000293766 0.0 
5.76124e-08 2.9102e-08 0.0 
1.00119 -0.00129484 0.0 
2.4956e-08 1.88996e-09 0.0 
1.00015 -0.000885412 0.0 
0.959976 -0.0123569 0.0 
0.0846402 0.0055688 0.0 
0.999893 -0.00779506 0.0 
0.999231 -0.000978139 0.0 
1.00184 -0.00412657 0.0 
0.99653 0.00691983 0.0 
0.997411 0.00676957 0.0 
1.14215 -0.155323 0.0 
1.2275e-08 5.53243e-10 0.0 
1.0017 1.85195e-05 0.0 
1.10716 -0.0390063 0.0 
1.00628 0.00231235 0.0 
0.999255 5.28379e-05 0.0 
1.00079 -0.00387849 0.0 
1.00079 -0.00725593 0.0 
0.999467 0.000562649 0.0 
0.0124468 0.000614563 0.0 
0.999453 -0.00468968 0.0 
1.00022 -0.00043452 0.0 
0.99615 0.00586239 0.0 
1.00162 0.00368685 0.0 
0.00860911 -0.000991661 0.0 
1.00172 -0.00603811 0.0 
0 0 0.0 
1.00295 0.000809954 0.0 
1.00085 -0.000843962 0.0 
1.00663 0.00474162 0.0 
0 0 0.0 
0.993743 -0.0139744 0.0 
0 0 0.0 
0 0 0.0 
0.999338 0.000457339 0.0 
1.00376 0.00313035 0.0 
0.000623496 -0.00011082 0.0 
0.998509 2.66622e-05 0.0 
1.00207 -0.00096475 0.0 
1.00646 -0.00151381 0.0 
0.797212 0.251698 0.0 
0.959829 0.0669643 0.0 
1.00247 -0.00091842 0.0 
1.00424 -0.00256873 0.0 
1.00196 0.000243077 0.0 
1.00319 -0.00330727 0.0 
0.99861 -0.00106547 0.0 
1.00539 0.0105291 0.0 
0.999883 0.00700989 0.0 
1.00366 -0.00160038 0.0 
1.00004 0.000390917 0.0 
0.187375 0.0108246 0.0 
1.00299 -0.000209311 0.0 
1.0014 0.00185057 0.0 
0.997486 -0.00300715 0.0 
0.986214 -0.0020045 0.0 
1.00095 -0.00207716 0.0 
0.996749 -0.0026748 0.0 
0.998165 -0.00606261 0.0 
1.00158 -0.00273125 0.0 
1.00103 -0.00021977 0.0 
0.999225 -0.00646449 0.0 
1.00863 0.0162043 0.0 
0 0 0.0 
1.00124 -0.00720474 0.0 
0.994831 -0.0013585 0.0 
0.999183 0.00435557 0.0 
1.00125 0.00155234 0.0 
1.00157 0.00243096 0.0 
0.999826 7.24514e-05 0.0 
1.00184 0.000616249 0.0 
0 0 0.0 
1.00186 -0.00268121 0.0 
1.01242 -0.00800879 0.0 
0.999147 -0.000422742 0.0 
0 0 0.0 
0.999144 -0.00728898 0.0 
0 0 0.0 
0.999724 -0.000620307 0.0 
1.00126 -0.00136528 0.0 
0.998209 -0.0119457 0.0 
0.985337 -0.0132274 0.0 
0.997037 -0.00204194 0.0 
0.994131 -0.00425722 0.0 
1.00288 -0.00348304 0.0 
1.00148 0.00108905 0.0 
1 -0.00281772 0.0 
1.00016 -0.00855934 0.0 
0.999608 0.000345006 0.0 
1.0276 0.00549539 0.0 
0 0 0.0 
1.0003 0.000720858 0.0 
1.02204 0.0158002 0.0 
1.0007 0.00475319 0.0 
0.998495 0.0132186 0.0 
1.0004 -0.00193512 0.0 
0.0117889 -0.00172542 0.0 
1.00252 -0.00295292 0.0 
1.00771 -0.00901996 0.0 
1.00098 0.00165845 0.0 
0.995739 -0.000598328 0.0 
4.3207e-08 8.2557e-10 0.0 
1.00084 0.00094238 0.0 
0.998384 -0.00693539 0.0 
0 0 0.0 
1.00044 -0.00259652 0.0 
1.0028 0.00622591 0.0 
2.61125e-07 -9.18859e-09 0.0 
1.00058 -0.00325714 0.0 
1.00158 -0.00381337 0.0 
0.997133 -0.00222441 0.0 
0.0182673 0.000490213 0.0 
1.00782 0.00148101 0.0 
1.00208 0.000118044 0.0 
1.00255 0.0032652 0.0 
1.01441 0.00152617 0.0 
1.00085 0.000418751 0.0 
1.00032 -0.00105144 0.0 
1.00167 0.000362792 0.0 
1.00022 0.0039791 0.0 
1.00181 -0.00332344 0.0 
0.108219 0.0203488 0.0 
1.00121 -0.0016635 0.0 
0.283504 0.0217529 0.0 
1.00179 -0.0010393 0.0 
1.00014 0.0011777 0.0 
1.00016 0.00275743 0.0 
1.00153 -0.000606259 0.0 
1.00554 -0.00118861 0.0 
1.00004 0.00190206 0.0 
0.997539 0.00430164 0.0 
1.00209 -4.15648e-05 0.0 
1.02481 -0.00790401 0.0 
1.00032 -0.00137305 0.0 
1.00033 0.00115444 0.0 
0 0 0.0 
0.997643 -0.00493198 0.0 
1.00061 -0.00690799 0.0 
0.999734 0.000966481 0.0 
1.00541 0.0218332 0.0 
0.999841 -0.00754981 0.0 
0.998715 -0.00012722 0.0 
1.00282 -0.000360944 0.0 
0.985736 -0.00913471 0.0 
0.988867 -0.00713817 0.0 
8.80818e-09 1.76652e-10 0.0 
1.0028 0.00213942 0.0 
0.999283 -0.0089742 0.0 
1.00292 -0.00176216 0.0 
1.00411 -0.000793037 0.0 
0.995923 0.00365642 0.0 
0 0 0.0 
0.996858 -0.000572007 0.0 
0.999897 0.000490557 0.0 
1.00106 -0.00399642 0.0 
0 0 0.0 
0.999978 6.57822e-05 0.0 
1.00862 -0.00610853 0.0 
1.00289 -0.000817879 0.0 
0.999308 -0.00148676 0.0 
1.00139 -0.00110878 0.0 
1.0061 -0.00498872 0.0 
0.969464 -0.0104784 0.0 
1.00009 -0.00291498 0.0 
1.00226 0.000975567 0.0 
1.00053 -0.00517367 0.0 
0.999304 9.21475e-05 0.0 
1.00115 -0.00122233 0.0 
1.0021 -0.00248771 0.0 
0.999995 0.00439846 0.0 
1.00573 -0.00686903 0.0 
0.99913 0.000203976 0.0 
1.00159 -0.00105672 0.0 
1.00233 -0.00337364 0.0 
1.00009 0.000343136 0.0 
0.0905121 -0.00560859 0.0 
1.03476 -0.0448585 0.0 
1.00213 1.68216e-05 0.0 
1.00016 0.00133829 0.0 
0.143925 -0.00819711 0.0 
0.999077 -0.00481125 0.0 
0.567635 -0.055142 0.0 
1.0021 -0.00409794 0.0 
1.00005 -0.000149744 0.0 
0.997798 0.00323341 0.0 
1.00089 -0.0017215 0.0 
1.00156 -0.00567901 0.0 
0.00955178 0.000376625 0.0 
1.00065 -0.000321604 0.0 
1.00048 -0.00175844 0.0 
1.00345 -0.000105285 0.0 
0.999175 0.00234602 0.0 
1.00148 -0.00819729 0.0 
0.997336 -0.00544447 0.0 
1.0007 0.00229373 0.0 
0.997844 -0.0091365 0.0 
0.999145 -0.0159421 0.0 
1.00243 0.00172081 0.0 
0.996516 0.000255243 0.0 
1.00096 0.00100055 0.0 
6.42929e-09 5.0046e-10 0.0 
0.999319 4.90426e-05 0.0 
8.19608e-08 3.83146e-08 0.0 
0.999252 -0.00171487 0.0 
0.992047 0.00481708 0.0 
1.0041 -0.000801012 0.0 
1.00485 -0.00373751 0.0 
1.00108 -0.00179071 0.0 
1.00176 -0.0112836 0.0 
0 0 0.0 
0.999188 0.000334578 0.0 
0.994705 -0.00121148 0.0 
0.999624 0.000509912 0.0 
0.0901949 0.00134353 0.0 
0.0221518 0.00109275 0.0 
0 0 0.0 
1.00069 0.000667541 0.0 
0.997693 -0.000229878 0.0 
0.9999 -0.000505801 0.0 
1.00108 -0.00139219 0.0 
1.00338 -0.00234263 0.0 
1.00092 -0.00298775 0.0 
0.997887 -3.2642e-05 0.0 
1.0006 -0.00087448 0.0 
0.998498 -0.001235 0.0 
0.0524351 -0.00726264 0.0 
0.999472 0.00037057 0.0 
0.992156 -0.0103564 0.0 
1.01325 0.00472433 0.0 
1.00244 0.0012823 0.0 
0.998997 -9.42885e-05 0.0 
0.998754 -0.00593778 0.0 
1.00106 -0.0051884 0.0 
1.00004 -0.00412849 0.0 
1.00048 0.00034684 0.0 
0.997331 0.000449223 0.0 
1.00012 -0.00755907 0.0 
1.0066 -0.00294925 0.0 
1.00312 -0.00129853 0.0 
1.0019 -0.00139799 0.0 
1.00049 -0.00122007 0.0 
0.98595 -0.00586919 0.0 
0.999642 -0.00880162 0.0 
1.00492 -0.00104027 0.0 
1.00002 -0.0089114 0.0 
1.00374 -0.00791269 0.0 
1.00232 0.00400527 0.0 
1.00496 0.0154506 0.0 
1.01759 0.000227012 0.0 
1.00094 -0.00660986 0.0 
0.486403 0.186711 0.0 
1.00436 0.00383226 0.0 
1.00045 -0.000779107 0.0 
0.998703 -0.00866799 0.0 
1.0023 -0.00027293 0.0 
1.00001 0.000491793 0.0 
0.996684 -0.00922347 0.0 
1.00183 -0.000624388 0.0 
1.00287 0.00289662 0.0 
1.00219 0.0025662 0.0 
1.00373 0.00105614 0.0 
2.63168e-08 -3.32514e-09 0.0 
0.991828 -0.00644957 0.0 
0.998166 0.000344484 0.0 
1.00291 -0.0079716 0.0 
0.999789 -0.000416442 0.0 
1.00057 0.000146374 0.0 
1.00295 -0.00113737 0.0 
1.00125 0.00180799 0.0 
1.00076 -0.0047968 0.0 
1.00064 -0.00638165 0.0 
0.9984 -0.00157297 0.0 
0.999933 0.00111132 0.0 
1.00076 -0.00694477 0.0 
1.00513 0.000779751 0.0 
0.998372 -0.00281848 0.0 
0.998888 -0.00343553 0.0 
0.998575 0.00158398 0.0 
1.0004 0.005932 0.0 
1.00358 0.000564375 0.0 
0 0 0.0 
1.00011 0.00155241 0.0 
0.998721 -0.000961097 0.0 
0.999339 -0.00676108 0.0 
4.98037e-09 -8.97046e-11 0.0 
1.00042 -0.000348345 0.0 
0.997185 -0.00283826 0.0 
0.996779 0.00195326 0.0 
1.00137 -0.00320528 0.0 
0.999227 -0.00727314 0.0 
1.0015 -0.00108879 0.0 
1.00018 0.000580429 0.0 
0 0 0.0 
1.00483 -0.00165228 0.0 
1.00041 -0.0023542 0.0 
1.00129 -0.00225158 0.0 
1.00996 0.00327815 0.0 
0.997999 0.00292982 0.0 
0.999922 0.000230491 0.0 
1.00099 -0.000462055 0.0 
1.00158 -0.00335431 0.0 
0.99993 -0.0070451 0.0 
1.00714 -0.0335015 0.0 
0.998829 0.00135138 0.0 
1.00143 -0.00342192 0.0 
1.00256 5.61234e-06 0.0 
1.00143 -0.000148174 0.0 
0.93663 -0.00687702 0.0 
0 0 0.0 
1.00148 0.00072285 0.0 
0.999214 0.00183675 0.0 
0.989136 0.0026297 0.0 
1.00291 0.000366969 0.0 
0.997681 -0.00806946 0.0 
1.00278 -0.0023691 0.0 
0.999691 0.000125647 0.0 
1.00193 8.93625e-05 0.0 
0.999285 0.00381853 0.0 
1.00281 -0.00272752 0.0 
0.999439 -0.000565446 0.0 
1.00406 -0.00424523 0.0 
0.999255 -0.000364137 0.0 
1.00193 -0.000407245 0.0 
0.014024 0.000823258 0.0 
1.01426 -0.00378886 0.0 
1.0085 -0.00472978 0.0 
1.01342 -0.00849878 0.0 
1.00198 -9.61607e-05 0.0 
1.00367 -0.0088852 0.0 
1.00708 -0.00106733 0.0 
0 0 0.0 
1.00127 -0.0018472 0.0 
0.733119 -0.137067 0.0 
1.04126 -0.046468 0.0 
0.997438 0.00565358 0.0 
1.00002 -3.96076e-05 0.0 
0.997886 -0.00521965 0.0 
0.990279 0.000232029 0.0 
1.0008 0.00962754 0.0 
1.00255 -0.000407217 0.0 
0.327056 0.0333199 0.0 
1.00146 0.00397143 0.0 
1.00222 -0.0017322 0.0 
1.00262 -0.00259829 0.0 
0.999162 -0.00524315 0.0 
0 0 0.0 
0.999292 -0.000345941 0.0 
1.00122 -0.00106997 0.0 
0.999318 0.00581718 0.0 
0.999827 -0.00235148 0.0 
1.0016 -0.000992222 0.0 
1.00015 -0.00146088 0.0 
1.00173 -0.00460111 0.0 
0.995083 -0.0136262 0.0 
0.999997 0.000553055 0.0 
0.998708 0.00304557 0.0 
0.998364 0.0006342 0.0 
1.00109 -0.000814179 0.0 
1.00094 -0.00111074 0.0 
1.00152 0.00104432 0.0 
1.05098 -0.223445 0.0 
0.99739 -0.0067506 0.0 
0.998494 0.00561526 0.0 
1.00001 0.000336247 0.0 
1.00468 0.00359438 0.0 
1.0019 0.00283859 0.0 
1.00206 -0.000610467 0.0 
0.999425 -0.000977539 0.0 
1.0004 0.00133027 0.0 
1.00387 -0.0271128 0.0 
1.00571 -0.00217178 0.0 
1.00128 -0.00106904 0.0 
0.999596 0.000425234 0.0 
0.991436 0.000922413 0.0 
1.00044 0.000740337 0.0 
1.00073 -0.000436176 0.0 
0.998718 0.00480683 0.0 
1.00171 -0.00132027 0.0 
0.993225 -0.00874398 0.0 
1.00215 -0.000793246 0.0 
0.997952 -0.00149048 0.0 
1.00131 0.000493539 0.0 
1.00134 -0.004255 0.0 
1.00072 -0.00157404 0.0 
1.00066 0.000529111 0.0 
1.00099 -0.000880393 0.0 
1.00048 -0.000974945 0.0 
0.99987 0.0016103 0.0 
1.00018 0.000695308 0.0 
1.00087 0.000810293 0.0 
1.00139 -0.000436407 0.0 
1.00117 -0.00119756 0.0 
0.998413 0.00166483 0.0 
1.00051 0.000658362 0.0 
1.00066 0.00134048 0.0 
0.999991 -0.000152096 0.0 
1.0012 -0.0009248 0.0 
0.999284 0.00103882 0.0 
0.999996 -2.61205e-05 0.0 
0.998913 -0.00169541 0.0 
1.00019 -0.000334563 0.0 
1.00003 -4.8085e-05 0.0 
1.00089 -0.00121683 0.0 
0.999175 6.24961e-05 0.0 
0 0 0.0 
0.999357 -0.00350183 0.0 
0.999305 0.00237074 0.0 
0.999606 -0.000431671 0.0 
0.998227 0.000136291 0.0 
1.00241 -0.00156306 0.0 
1.0001 -0.000110457 0.0 
1.0017 -0.0024097 0.0 
1.00264 -0.000714918 0.0 
0 0 0.0 
1.00026 0.00101963 0.0 
1.05003 -0.0726349 0.0 
1.0015 -0.00146871 0.0 
1.0012 -0.00126698 0.0 
0.998878 0.000247368 0.0 
1.00001 0.000145954 0.0 
0.99966 -0.0116249 0.0 
1.00061 -0.0055897 0.0 
1.00062 -0.000408637 0.0 
0 0 0.0 
1.00178 -0.00150631 0.0 
0.997895 0.000729836 0.0 
1.00053 0.000495663 0.0 
0.999589 0.000916299 0.0 
0.992824 -0.00825585 0.0 
1.00127 -0.000661598 0.0 
0.99294 -0.00731119 0.0 
0.997379 0.0546272 0.0 
0.999168 0.00191999 0.0 
0.995234 -0.00237682 0.0 
0.999643 -0.00552196 0.0 
1.00168 0.00501147 0.0 
1.00408 -0.0021013 0.0 
1.00418 0.00198879 0.0 
0.996927 0.00300974 0.0 
0.998974 -0.000243119 0.0 
1.00154 -0.00200295 0.0 
1.00286 -0.000376404 0.0 
1.00124 -0.0033983 0.0 
1.00119 -0.000522101 0.0 
1.00052 -7.44253e-05 0.0 
0.999075 -0.000926886 0.0 
1.00068 0.000760053 0.0 
1.00168 0.0324622 0.0 
1.0014 0.000458189 0.0 
-2.3542e-09 2.15146e-11 0.0 
1.00047 0.00176409 0.0 
0.998567 -0.00318908 0.0 
1.00362 0.00559394 0.0 
1.00803 0.00288886 0.0 
1.00021 -0.00100148 0.0 
1.00032 -0.00125875 0.0 
1.00065 -0.00427889 0.0 
0.999378 -0.00288519 0.0 
1.00131 0.00126953 0.0 
0.99916 -0.00062161 0.0 
0.994877 0.00291905 0.0 
1.00007 -0.00446409 0.0 
0.999476 0.000247801 0.0 
0.999554 -0.00757494 0.0 
0.996408 0.008961 0.0 
0.995 -0.00478362 0.0 
0.994572 -0.00130571 0.0 
1.00211 -0.00131544 0.0 
1.0011 -0.00157901 0.0 
0.998627 -0.000322184 0.0 
1.00063 -0.00683005 0.0 
0.99998 0.00135102 0.0 
0.999081 0.000376529 0.0 
0.998734 0.00206433 0.0 
0.181689 -0.0166604 0.0 
1.00286 0.000534091 0.0 
1.00165 -0.000166989 0.0 
0.997339 0.00134092 0.0 
0.997595 0.000782113 0.0 
0.998758 -3.71861e-05 0.0 
1.00071 0.000816825 0.0 
1.00007 -0.000370884 0.0 
0.993769 -0.00485679 0.0 
0.999163 0.000149203 0.0 
0.0278118 -0.00366709 0.0 
1.00082 -0.00045309 0.0 
1.00468 -0.00989565 0.0 