<VTKFile type="UnstructuredGrid" version="0.1" byte_order="LittleEndian">
  <UnstructuredGrid>
    <Piece NumberOfPoints="23679" NumberOfCells="47236">
      <Points>
        <DataArray type = "Float64" NumberOfComponents="3" format="ascii">
-5 -7 0.0 
15.5 -7 0.0 
15.5 7 0.0 
-5 7 0.0 
7.63511 2.91639 0.0 
1.87049 1.67084 0.0 
-0.605974 -0.287769 0.0 
2.37337 -3.10656 0.0 
0.929906 2.48659 0.0 
0.824948 -0.0289232 0.0 
0.579762 -2.6174 0.0 
2.75639 -0.320238 0.0 
0.600589 -0.0279367 0.0 
0.809974 0.0358912 0.0 
4.52511 -0.0925724 0.0 
0.692729 -0.023898 0.0 
2.14598 1.71184 0.0 
4.47114 -0.725108 0.0 
2.94972 0.812693 0.0 
-2.51884 -5.20772 0.0 
0.933054 -0.00978829 0.0 
-3.39004 -0.0550254 0.0 
0.209319 0.0741243 0.0 
-0.14562 -1.1416 0.0 
0.16355 -0.0415655 0.0 
4.37129 -0.146188 0.0 
0.125896 0.0617342 0.0 
2.89507 -0.00321849 0.0 
0.117818 -0.0547525 0.0 
0.74577 -0.0190427 0.0 
1.20907 -2.59566 0.0 
7.05945 1.36908 0.0 
1.18414 0.837326 0.0 
-0.664239 0.00933663 0.0 
0.988285 -0.635056 0.0 
0.79931 -0.0154644 0.0 
-0.169857 -0.752454 0.0 
-0.535193 0.781979 0.0 
4.50646 0.336854 0.0 
0.675201 -0.447934 0.0 
4.33956 3.92927 0.0 
7.20401 -0.547152 0.0 
5.06202 0.761268 0.0 
-1.83764 -0.830466 0.0 
2.97447 -2.59497 0.0 
1.77447 -4.2029 0.0 
0.203756 0.0741702 0.0 
2.3905 -0.208726 0.0 
-2.38226 0.0491773 0.0 
1.57579 -4.90006 0.0 
0.892623 0.876713 0.0 
0.619187 0.0692661 0.0 
1.81524 2.22933 0.0 
3.20393 -0.375619 0.0 
0.560088 -0.0307549 0.0 
-4.00064 -1.06423 0.0 
4.1637 1.41296 0.0 
2.03909 0.577378 0.0 
3.97155 -0.451817 0.0 
-1.0713 0.305678 0.0 
1.24518 -0.853569 0.0 
5.30713 0.379083 0.0 
0.993214 0.00283989 0.0 
0.513972 -3.72515 0.0 
4.25372 1.90694 0.0 
0.87556 0.025233 0.0 
0.401296 0.0780688 0.0 
0.44761 -0.0359067 0.0 
-3.06259 -0.640688 0.0 
0.58449 -3.29242 0.0 
4.47137 0.702541 0.0 
-0.523713 -0.272593 0.0 
-0.477755 -0.422453 0.0 
0.570246 -0.533547 0.0 
0.538433 -0.0310055 0.0 
5.2741 -1.01059 0.0 
2.21102 -1.39328 0.0 
1.30783 -0.274121 0.0 
4.18709 -1.48886 0.0 
-1.19726 -3.28581 0.0 
-0.0359698 -1.75399 0.0 
0.617039 -0.0263973 0.0 
5.83653 0.150199 0.0 
5.57946 0.224905 0.0 
0.377841 -0.038928 0.0 
1.38254 1.36675 0.0 
2.58372 -1.06479 0.0 
4.70454 -3.6075 0.0 
0.551438 0.113173 0.0 
0.532912 -0.0384617 0.0 
-0.392031 -0.729994 0.0 
4.38556 1.53498 0.0 
-1.34387 -2.96962 0.0 
4.73748 -0.295427 0.0 
5.13252 -2.84762 0.0 
5.34987 1.08334 0.0 
0.326684 0.0802051 0.0 
1.0681 0.191919 0.0 
0.292684 0.0800176 0.0 
-0.288073 -0.693253 0.0 
0.850052 0.029488 0.0 
7.72674 -2.22661 0.0 
5.73402 0.253504 0.0 
3.27298 3.73283 0.0 
2.31769 -0.889324 0.0 
3.24694 -2.57408 0.0 
-0.795775 -5.8192 0.0 
0.667923 -0.0361302 0.0 
0.835769 0.0314682 0.0 
4.69839 -1.50939 0.0 
4.91709 3.01814 0.0 
0.151849 -0.0409087 0.0 
3.55148 0.264681 0.0 
0.842117 -0.794382 0.0 
2.65591 1.43349 0.0 
0.932811 0.0144733 0.0 
-0.764917 -0.926758 0.0 
3.60734 -0.915315 0.0 
-0.605852 0.649115 0.0 
5.76621 -0.263827 0.0 
3.08877 -0.924843 0.0 
0.899825 -0.00795866 0.0 
6.80384 1.26814 0.0 
3.19847 -0.826277 0.0 
0.0166341 -0.0962489 0.0 
3.983 -1.51439 0.0 
5.81155 1.05052 0.0 
0.403773 -0.0376754 0.0 
4.06583 -0.737319 0.0 
3.85222 3.16404 0.0 
7.27994 -0.917065 0.0 
7.01199 -1.44503 0.0 
5.44634 0.7472 0.0 
5.43495 -0.0201864 0.0 
1.51213 -0.834065 0.0 
1.97076 0.806002 0.0 
0.634487 0.0595385 0.0 
-0.572414 -4.29099 0.0 
1.8826 -0.733417 0.0 
0.759381 -0.180619 0.0 
0.40132 0.0778474 0.0 
0.23454 -0.0430222 0.0 
-0.802406 2.95957 0.0 
0.691963 0.0549995 0.0 
5.47277 -0.740356 0.0 
14.1487 4.94071 0.0 
0.0736498 -1.30758 0.0 
-3.24273 0.882011 0.0 
1.37104 -0.876055 0.0 
-0.483647 -0.194829 0.0 
2.83565 1.06937 0.0 
5.52957 -1.21731 0.0 
0.947149 -0.00912481 0.0 
-0.408161 -0.611461 0.0 
-0.824132 1.91234 0.0 
-0.28194 0.734853 0.0 
-2.58987 -0.112571 0.0 
5.39673 0.0810302 0.0 
0.347037 -1.34491 0.0 
1.28521 2.08402 0.0 
0.220369 -0.0424097 0.0 
-0.490215 0.575937 0.0 
1.64934 -1.3049 0.0 
0.153085 0.0664047 0.0 
-0.251695 -2.55503 0.0 
0.826156 -0.0139773 0.0 
3.35673 0.186652 0.0 
4.62807 -2.39408 0.0 
-1.05781 -1.39579 0.0 
-2.54531 4.21509 0.0 
1.60336 1.51116 0.0 
0.713093 0.0498095 0.0 
0.643534 0.0642145 0.0 
-3.64101 4.81173 0.0 
-1.26922 -3.94313 0.0 
-0.342655 -1.12768 0.0 
3.30326 0.952175 0.0 
5.64264 0.331249 0.0 
1.34559 -0.214642 0.0 
1.60527 0.321358 0.0 
0.328683 -0.0401423 0.0 
3.81728 0.37784 0.0 
4.37562 0.758715 0.0 
5.5831 -1.82905 0.0 
-1.49688 0.101849 0.0 
-1.70027 -0.343758 0.0 
0.937041 0.0136815 0.0 
5.60623 1.42522 0.0 
-1.23169 -0.42816 0.0 
1.69627 2.52442 0.0 
1.36245 -1.5082 0.0 
1.25107 -3.80948 0.0 
2.74679 0.528168 0.0 
5.36614 -1.19177 0.0 
0.605019 1.16677 0.0 
-4.58423 -1.62108 0.0 
-2.02651 2.34708 0.0 
3.99339 3.63024 0.0 
-1.36142 -0.0750085 0.0 
5.19766 -0.482867 0.0 
-3.85513 -1.43107 0.0 
0.966422 0.00919783 0.0 
0.247834 0.0870881 0.0 
-0.465649 -0.817954 0.0 
4.29025 4.26714 0.0 
1.18312 -0.431176 0.0 
9.21986 0.0258833 0.0 
5.39136 -0.625475 0.0 
5.56604 0.611257 0.0 
1.96388 -1.61685 0.0 
0.196106 -0.0423443 0.0 
2.93186 0.364486 0.0 
5.88518 0.822328 0.0 
0.824138 -0.0139123 0.0 
-0.47228 -0.526413 0.0 
0.477118 -0.0338206 0.0 
-4.64673 -2.62107 0.0 
4.10712 -0.887195 0.0 
0.710355 0.0501717 0.0 
1.64936 -0.864917 0.0 
-1.61346 -3.22424 0.0 
0.0092848 0.0284272 0.0 
7.26993 2.53793 0.0 
1.1048 2.83071 0.0 
10.1588 1.30502 0.0 
-0.263385 -0.26391 0.0 
13.7005 7 0.0 
0.52333 0.0703707 0.0 
4.58595 -1.29531 0.0 
5.62067 -0.188463 0.0 
0.799738 -0.0147854 0.0 
11.9625 -2.20661 0.0 
5.40435 0.619553 0.0 
3.28687 -1.45096 0.0 
0.458966 0.0872446 0.0 
5.51568 -0.596029 0.0 
-1.63011 3.37507 0.0 
0.293181 -0.0414659 0.0 
0.865321 -2.71027 0.0 
0.786038 -0.0158333 0.0 
0.0736186 0.0492692 0.0 
4.13993 -2.76136 0.0 
0.881421 -0.0921271 0.0 
0.266317 -3.38104 0.0 
4.88629 -0.852705 0.0 
0.437008 0.076424 0.0 
3.8816 4.12562 0.0 
7.92184 -0.0908268 0.0 
0.176354 -0.0480078 0.0 
-0.662142 0.143724 0.0 
6.26015 0.128606 0.0 
0.915518 -0.00670685 0.0 
3.62021 -1.04763 0.0 
1.34876 0.720027 0.0 
0.982357 -3.49725 0.0 
0.663709 0.0566737 0.0 
5.3066 -0.705713 0.0 
-0.944514 -3.61431 0.0 
1.79294 -0.661223 0.0 
-0.342215 2.27409 0.0 
5.88842 -0.367403 0.0 
0.211839 -0.0420107 0.0 
0.654413 -0.0369233 0.0 
3.68564 6.54289 0.0 
5.00064 1.8515 0.0 
0.69027 0.0546811 0.0 
1.12166 0.441142 0.0 
7.31715 -3.60167 0.0 
2.79958 1.64327 0.0 
0.433465 0.0764782 0.0 
0.584196 0.0652607 0.0 
0.0636322 -0.695974 0.0 
-1.81416 1.63551 0.0 
0.74075 0.0465749 0.0 
2.69342 -1.49048 0.0 
4.86008 -1.00044 0.0 
0.822907 -0.0142337 0.0 
-0.164664 0.307939 0.0 
4.48127 5.51069 0.0 
4.4895 -4.79993 0.0 
5.37438 1.55243 0.0 
0.123991 1.28664 0.0 
6.41782 -0.499678 0.0 
3.16721 -0.70129 0.0 
1.99155 -0.729552 0.0 
4.69954 4.16905 0.0 
-1.91695 -2.36563 0.0 
8.09216 1.16816 0.0 
0.242046 0.0802658 0.0 
2.34355 2.47663 0.0 
2.72841 -0.285972 0.0 
13.5916 6.05949 0.0 
1.64671 4.40597 0.0 
3.03209 1.84093 0.0 
-0.498111 0.662759 0.0 
0.765551 -2.10462 0.0 
5.25655 0.61914 0.0 
6.04759 -2.75505 0.0 
1.12471 -0.237361 0.0 
6.40695 -2.14103 0.0 
4.37139 0.883681 0.0 
0.240004 -0.042139 0.0 
-4.55867 -4.42627 0.0 
-1.09286 3.96435 0.0 
-1.07351 0.572111 0.0 
3.73338 -0.828021 0.0 
-0.766762 -0.403459 0.0 
0.402752 -1.68281 0.0 
0.925255 0.0164317 0.0 
0.88786 -0.943606 0.0 
0.505244 -0.025873 0.0 
-0.299243 0.0389379 0.0 
3.36416 0.723434 0.0 
0.636773 1.7916 0.0 
0.0435288 1.09333 0.0 
0.74756 2.65039 0.0 
5.12608 -1.02106 0.0 
3.05399 0.794214 0.0 
3.3685 -2.29577 0.0 
9.40833 4.18552 0.0 
0.726496 1.10014 0.0 
-1.43587 -0.265452 0.0 
1.53809 -0.965095 0.0 
3.65342 -1.2467 0.0 
3.58193 2.86195 0.0 
1.58453 1.05649 0.0 
0.69113 -0.0216886 0.0 
4.67304 -0.737386 0.0 
2.403 -2.53676 0.0 
-0.883615 -1.03632 0.0 
0.570985 0.067201 0.0 
4.5489 1.01634 0.0 
1.30188 0.95494 0.0 
4.78484 -2.98767 0.0 
0.647276 3.74647 0.0 
1.64058 -1.98991 0.0 
5.60464 1.66025 0.0 
-2.46641 -2.76999 0.0 
0.0236771 0.0292808 0.0 
1.83737 -2.85625 0.0 
0.712397 -0.0207427 0.0 
-0.929233 -3.15638 0.0 
5.62429 -0.0217768 0.0 
0.696715 -0.0236006 0.0 
4.31467 0.462465 0.0 
1.90518 -1.00498 0.0 
3.8123 -0.317197 0.0 
-1.40698 0.43063 0.0 
8.12686 0.163945 0.0 
0.0912505 -0.0517404 0.0 
0.360402 0.0788181 0.0 
0.766222 5.08386 0.0 
0.543306 0.227627 0.0 
0.768677 -0.887089 0.0 
13.8069 6.49329 0.0 
3.14545 -0.527242 0.0 
3.00213 0.685174 0.0 
-3.26851 -1.17579 0.0 
0.326091 -0.0407782 0.0 
-0.350969 -1.28117 0.0 
-1.34372 -4.38367 0.0 
-1.47047 0.274883 0.0 
8.69891 -0.824176 0.0 
0.572752 0.0666296 0.0 
3.02391 1.56815 0.0 
0.546825 -0.0304958 0.0 
7.53034 -2.92118 0.0 
0.862614 -3.9233 0.0 
7.46433 -0.686568 0.0 
0.435695 0.0763326 0.0 
-0.291216 -0.600905 0.0 
0.958024 -0.00418663 0.0 
0.996359 0.00209859 0.0 
-3.04054 -1.35802 0.0 
7.86523 -1.29492 0.0 
0.824153 0.0339519 0.0 
-2.0843 -1.39076 0.0 
2.0242 4.23744 0.0 
6.10554 -1.09258 0.0 
0.070474 0.0518922 0.0 
0.253412 0.0852338 0.0 
4.90662 -3.37133 0.0 
5.3389 -1.37998 0.0 
8.18441 -5.4394 0.0 
4.74018 -1.11041 0.0 
-1.45792 -1.69797 0.0 
-0.658439 1.28669 0.0 
-1.47154 1.02941 0.0 
0.548603 -1.30682 0.0 
-4.28372 4.01846 0.0 
0.597388 -0.031556 0.0 
0.976283 3.91053 0.0 
-1.97604 3.44687 0.0 
-0.823498 -1.2495 0.0 
-0.676338 -0.322971 0.0 
0.0194499 -2.00073 0.0 
6.06625 2.2173 0.0 
4.77636 1.32682 0.0 
3.5286 -1.40716 0.0 
2.2348 6.10147 0.0 
4.3501 1.14584 0.0 
-0.374853 0.997283 0.0 
0.331239 -0.0398749 0.0 
2.92416 0.944765 0.0 
-1.08711 -0.79613 0.0 
-2.10643 0.811211 0.0 
10.0853 -2.20029 0.0 
9.19723 -1.4685 0.0 
-3.63493 -2.23583 0.0 
9.13289 -4.40814 0.0 
0.13646 -0.0401233 0.0 
3.73879 -1.49966 0.0 
1.16246 1.31001 0.0 
1.76621 -0.985528 0.0 
0.279409 0.0783782 0.0 
4.49882 0.813878 0.0 
0.0773295 0.0501322 0.0 
-1.7711 -2.7915 0.0 
2.21785 -2.83793 0.0 
1.9729 0.35934 0.0 
6.07917 0.172121 0.0 
-1.06801 -1.19434 0.0 
-0.742511 -0.787541 0.0 
4.55801 -0.996424 0.0 
10.0032 -3.21238 0.0 
4.23955 3.27 0.0 
4.4588 0.213546 0.0 
-3.41169 -1.50587 0.0 
0.374392 0.944982 0.0 
[...]
<PointData>
  <DataArray type = "Float64" Name="VitesseP1" NumberOfComponents="3" format="ascii">
1 0 0.0 
1.00009 0 0.0 
0.999925 0 0.0 
1 0 0.0 
0.999769 3.05862e-05 0.0 
0.999445 -0.00592352 0.0 
0.985385 -0.00708578 0.0 
1.00166 0.000611847 0.0 
1.0033 -0.00228491 0.0 
0.788649 0.0509854 0.0 
1.00244 -0.000903839 0.0 
0.99901 0.00563114 0.0 
0.0160904 0.000496676 0.0 
0 0 0.0 
0.999155 0.00113204 0.0 
0.128581 0.00807996 0.0 
0.99854 -0.00462836 0.0 
0.999622 0.00137292 0.0 
0.995477 -3.64214e-05 0.0 
1.00032 -0.000412502 0.0 
0.22882 0.015236 0.0 
0.999384 0.000741887 0.0 
0.0799533 0.00972948 0.0 
1.00365 -0.00746795 0.0 
1.22529e-08 -5.32611e-10 0.0 
0.999113 0.00127342 0.0 
3.18939e-08 7.02801e-09 0.0 
0.996829 0.00448413 0.0 
1.15488 -0.115056 0.0 
0.0280869 0.00261238 0.0 
1.00255 -7.26365e-05 0.0 
0.999678 0.000183615 0.0 
1.00438 -0.0223028 0.0 
0.983135 0.00315468 0.0 
1.00667 0.00738285 0.0 
0.0208314 0.000998642 0.0 
1.00306 -0.0144748 0.0 
1.00127 0.0141337 0.0 
0.9989 0.00086568 0.0 
1.02027 0.0132043 0.0 
0.999841 -0.000510609 0.0 
0.999863 0.000397287 0.0 
0.999143 0.00045208 0.0 
0.997503 -0.00109035 0.0 
1.00142 0.00111312 0.0 
1.00138 7.50673e-05 0.0 
0.178672 0.0179914 0.0 
1.00008 0.0102833 0.0 
0.998152 0.00111662 0.0 
1.00119 -1.58091e-05 0.0 
1.01576 -0.0194672 0.0 
0.527513 -0.0551361 0.0 
1.00077 -0.0037301 0.0 
0.998919 0.00341997 0.0 
0.0413579 0.00253492 0.0 
0.999809 0.00015634 0.0 
0.99858 -0.000110878 0.0 
0.985806 -0.00633341 0.0 
0.999251 0.00182655 0.0 
0.993223 0.00549342 0.0 
1.00527 0.00322296 0.0 
0.999326 0.00058352 0.0 
-1.09368e-09 -1.31347e-09 0.0 
1.00151 -0.00053705 0.0 
0.998902 -0.000388522 0.0 
0.00435123 -0.000776288 0.0 
3.64561e-08 -5.04475e-10 0.0 
0 0 0.0 
0.999071 0.000178489 0.0 
1.00178 -0.00058971 0.0 
0.998749 0.000581382 0.0 
0.982949 -0.00939619 0.0 
0.988736 -0.0130329 0.0 
1.02175 0.00547025 0.0 
0 0 0.0 
0.999838 0.00092363 0.0 
1.00278 0.00251119 0.0 
0.994372 -0.000799848 0.0 
1.00024 0.0014728 0.0 
1.00068 -0.00118095 0.0 
1.00301 -0.00347112 0.0 
0 0 0.0 
0.999544 0.000536707 0.0 
0.99946 0.000573025 0.0 
3.76233e-08 1.69679e-09 0.0 
1.00207 -0.0100658 0.0 
1.00193 0.00346183 0.0 
1.00067 0.000594944 0.0 
1.13612 -0.0796966 0.0 
0.462174 0.0255255 0.0 
0.997665 -0.0124524 0.0 
0.998796 -0.000104726 0.0 
1.00045 -0.00137718 0.0 
0.999375 0.00108244 0.0 
1.00046 0.000722131 0.0 
0.999258 0.000284012 0.0 
0.123759 0.000480111 0.0 
0.980438 -0.0750536 0.0 
0.155769 0.00382852 0.0 
0.99881 -0.0149352 0.0 
1.38495e-08 -2.26671e-09 0.0 
1.00009 0.000356913 0.0 
0.999499 0.000533809 0.0 
1.00005 -0.000909793 0.0 
1.0029 0.00407403 0.0 
1.00122 0.00114271 0.0 
1.00073 -0.000242039 0.0 
0.717151 0.0442863 0.0 
0 0 0.0 
1.0001 0.00116549 0.0 
0.999536 -0.000360625 0.0 
0 0 0.0 
0.997761 0.00170685 0.0 
1.00959 0.0042205 0.0 
0.996875 -0.00271763 0.0 
0 0 0.0 
0.997031 -0.00627745 0.0 
0.999939 0.00229795 0.0 
0.997476 0.0143911 0.0 
0.999632 0.000647191 0.0 
1.0005 0.00314888 0.0 
0 0 0.0 
0.999644 0.00020143 0.0 
1.00013 0.00307669 0.0 
1.00792 -0.1795 0.0 
1.00035 0.00159548 0.0 
0.999427 0.000282355 0.0 
0 0 0.0 
0.999608 0.0017506 0.0 
0.999635 -0.000805589 0.0 
0.999919 0.000408906 0.0 
0.999994 0.000466495 0.0 
0.99932 0.000412822 0.0 
0.999482 0.000686983 0.0 
1.00462 0.00259628 0.0 
0.990594 -0.00850789 0.0 
0 0 0.0 
1.00092 -0.000645592 0.0 
1.0049 0.00336824 0.0 
1.01725 0.0401978 0.0 
0 0 0.0 
0.0475998 0.000486541 0.0 
1.00232 0.00131993 0.0 
0.119458 -0.0152513 0.0 
0.999742 0.000820054 0.0 
0.999927 9.06503e-06 0.0 
1.00509 -0.00538735 0.0 
0.999581 0.00148412 0.0 
1.00482 0.0027901 0.0 
0.978176 -0.00837374 0.0 
0.995852 -0.00129439 0.0 
0.999921 0.00082821 0.0 
0.244583 0.0160139 0.0 
0.994809 -0.0137886 0.0 
1.00321 0.00352602 0.0 
1.00642 0.0196167 0.0 
0.998461 0.000828372 0.0 
0.999438 0.000666979 0.0 
1.00612 -0.00322802 0.0 
1.00281 -0.00426932 0.0 
7.86787e-09 -2.27978e-10 0.0 
0.997288 0.0186013 0.0 
1.00401 0.00202353 0.0 
0 0 0.0 
1.00167 -0.00182283 0.0 
0.0400022 0.00302946 0.0 
0.997461 0.00220817 0.0 
1.00049 0.000963473 0.0 
0.998973 -0.00364479 0.0 
1.00068 0.000904073 0.0 
1.00022 -0.00792344 0.0 
0 0 0.0 
0.362888 -0.0413444 0.0 
1.00022 0.000647786 0.0 
1.00065 -0.000826561 0.0 
1.00155 -0.00775941 0.0 
0.996951 -6.92822e-06 0.0 
0.999453 0.000526347 0.0 
0.993724 -0.00489254 0.0 
0.97651 -0.0233277 0.0 
0 0 0.0 
0.998116 0.00122982 0.0 
0.998654 0.000541791 0.0 
1.00012 0.000780021 0.0 
0.995475 0.0022396 0.0 
0.996359 9.03498e-05 0.0 
0 0 0.0 
0.999366 0.000161431 0.0 
0.99438 -0.00146101 0.0 
1.00133 -0.00295775 0.0 
1.00435 0.00117785 0.0 
1.00158 -0.000125034 0.0 
0.99383 0.00146867 0.0 
0.99991 0.00088726 0.0 
1.01591 -0.00619253 0.0 
0.999977 9.57338e-05 0.0 
1.00086 0.00218521 0.0 
0.999798 -0.000671671 0.0 
0.994318 0.00120847 0.0 
0.999596 0.000894029 0.0 
0.999777 -6.21481e-05 0.0 
0.00766199 -0.00139155 0.0 
1.10108 0.0820444 0.0 
0.998085 -0.0103771 0.0 
0.999948 -0.000470014 0.0 
0.999098 0.00656404 0.0 
0.999919 0.000190859 0.0 
0.999689 0.000837192 0.0 
0.999381 0.000449239 0.0 
1.00311 0.00185189 0.0 
1.96592e-08 -1.00302e-09 0.0 
0.995396 0.00246806 0.0 
0.999459 0.000345709 0.0 
0.026847 0.00174203 0.0 
0.991805 -0.0129283 0.0 
0 0 0.0 
1.00001 1.22658e-05 0.0 
0.999759 0.00169987 0.0 
0 0 0.0 
1.00464 0.00263087 0.0 
1.00041 -0.00116503 0.0 
0.673106 0.485985 0.0 
0.999726 4.5086e-05 0.0 
1.00239 -0.0019103 0.0 
0.999905 0.000109509 0.0 
0.977072 -0.0276238 0.0 
0.99992 0 0.0 
0 0 0.0 
1.00001 0.00126938 0.0 
0.99958 0.000674661 0.0 
0 0 0.0 
1.00005 9.26489e-05 0.0 
0.999319 0.000468052 0.0 
1.00086 0.00216633 0.0 
0.90752 -0.0446877 0.0 
0.999696 0.000786857 0.0 
1.00128 0.00123905 0.0 
1.82675e-08 8.24126e-10 0.0 
1.00242 -0.000494762 0.0 
0 0 0.0 
7.06086e-08 2.12793e-08 0.0 
1.00075 0.000939967 0.0 
0.995127 0.0512227 0.0 
1.00161 -0.000789577 0.0 
0.999739 0.00110518 0.0 
0 0 0.0 
0.999989 -0.000599811 0.0 
0.999862 0.000286731 0.0 
0.696178 -0.0258803 0.0 
0.984388 0.00799553 0.0 
0.999641 0.000462536 0.0 
0 0 0.0 
1.00011 0.00219044 0.0 
0.997195 -0.0239373 0.0 
1.00172 -0.000297543 0.0 
0.00954775 -0.00115511 0.0 
0.999709 0.000883201 0.0 
1.00082 -0.00102182 0.0 
1.00515 0.0028386 0.0 
1.00418 0.00170079 0.0 
0.999684 0.000633453 0.0 
0 0 0.0 
0.717497 0.0439472 0.0 
1.0003 -8.94928e-05 0.0 
0.999196 -7.27045e-05 0.0 
0.0853636 -0.0107325 0.0 
0.999236 -0.0450511 0.0 
1.00026 0.0003233 0.0 
0.997693 -0.00231146 0.0 
0 0 0.0 
1.25652e-08 -9.23333e-10 0.0 
1.01033 -0.0154077 0.0 
1.0005 0.00305789 0.0 
0.00914883 -0.00125039 0.0 
1.00177 0.00243005 0.0 
0.999824 0.00112864 0.0 
0.0423842 0.00253423 0.0 
0.987385 0.0526149 0.0 
1.00011 -0.000232552 0.0 
1.00076 0.000332967 0.0 
0.99929 0.000101407 0.0 
1.01217 0.00328876 0.0 
0.999785 0.00052719 0.0 
0.999918 0.00328213 0.0 
1.00466 0.00388843 0.0 
0.999867 -0.000391605 0.0 
0.999841 -0.00135406 0.0 
0.999798 0.000176589 0.0 
0.565995 0.0412219 0.0 
0.999853 -0.00255493 0.0 
0.998835 0.00592583 0.0 
0.99992 4.87623e-06 0.0 
1.00099 -0.000710749 0.0 
0.998258 -0.00177601 0.0 
0.998749 0.0167115 0.0 
1.00342 -0.000813364 0.0 
0.999257 0.000493484 0.0 
1.00028 0.000568787 0.0 
0.98763 0.0107844 0.0 
1.00013 0.000560574 0.0 
0.998657 0.000425133 0.0 
0 0 0.0 
1 -2.5891e-05 0.0 
1.00142 0.00069721 0.0 
0.995985 0.00696211 0.0 
0.999771 0.00215259 0.0 
0.990581 -0.00534363 0.0 
1.00449 -0.00227156 0.0 
4.06897e-08 -6.89741e-09 0.0 
1.00811 0.002462 0.0 
0 0 0.0 
0.953508 0.00948641 0.0 
0.996966 0.000674954 0.0 
1.00719 -0.00302009 0.0 
1.01468 0.00754333 0.0 
1.00327 -0.00157514 0.0 
0.999838 0.00098821 0.0 
0.995884 0.000236213 0.0 
1.00111 0.00132634 0.0 
0.999869 2.33822e-05 0.0 
1.01508 -0.00993398 0.0 
0.995149 2.81677e-05 0.0 
1.00455 0.00251895 0.0 
1.00031 0.00203748 0.0 
0.999469 -0.00103847 0.0 
0.997473 -0.0128091 0.0 
0 0 0.0 
0.99965 0.00122407 0.0 
1.00185 0.00100543 0.0 
0.997754 -0.00516997 0.0 
0.0414608 -0.00327014 0.0 
0.998802 0.000312906 0.0 
1.00206 -0.0180068 0.0 
1.00056 0.000753426 0.0 
1.00182 -0.000544235 0.0 
1.00305 0.000921706 0.0 
0.999376 8.71639e-05 0.0 
0.999943 -0.000964934 0.0 
5.78318e-08 2.90292e-08 0.0 
1.00208 0.000442943 0.0 
3.81036e-08 2.82421e-09 0.0 
1.00084 -0.00129976 0.0 
0.999533 0.000632872 0.0 
0.124965 0.00826573 0.0 
0.998679 0.000839872 0.0 
1.004 0.00295883 0.0 
0.998996 0.0019984 0.0 
0.996083 0.00401495 0.0 
0.999856 0.000252186 0.0 
1.15799 -0.158482 0.0 
1.34421e-08 5.63779e-10 0.0 
1.0011 -0.000240326 0.0 
1.10699 -0.0490911 0.0 
1.00996 0.00217053 0.0 
0.99992 2.32856e-06 0.0 
0.999421 0.00354387 0.0 
0.995647 0.00065898 0.0 
0.99941 -0.000210901 0.0 
0.0130776 0.000643749 0.0 
1.00163 -0.00626902 0.0 
1.00064 -0.000661885 0.0 
0.995803 0.00309437 0.0 
0.999959 0.000252893 0.0 
0.0129146 -0.00148759 0.0 
0.997593 -0.00167437 0.0 
0 0 0.0 
1.00018 0.000349562 0.0 
1.00149 -0.000303374 0.0 
0.999897 0.000372686 0.0 
0 0 0.0 
0.997099 -0.0172702 0.0 
0 0 0.0 
0 0 0.0 
0.999324 -0.000395531 0.0 
0.999985 0.000343764 0.0 
0.00745375 -0.00148947 0.0 
0.998815 -0.00125276 0.0 
1.00082 -0.000856393 0.0 
0.999901 0.000648546 0.0 
0.79563 0.250881 0.0 
0.971307 0.067056 0.0 
1.00059 0.000633896 0.0 
0.999987 0.000893993 0.0 
1.0003 0.000124346 0.0 
0.999891 0.00119132 0.0 
0.999282 -0.00234067 0.0 
1.0035 0.00724475 0.0 
0.999015 0.00452634 0.0 
1.00671 -0.00184836 0.0 
1.00004 0.000431383 0.0 
0.249405 0.0147718 0.0 
1.00155 -0.000704469 0.0 
1.00105 0.00127892 0.0 
0.998902 -0.00477942 0.0 
0.987761 -0.00604801 0.0 
1.00268 -0.00255641 0.0 
0.999539 2.47613e-06 0.0 
0.998991 0.000127756 0.0 
1.00058 0.00201768 0.0 
1.00063 -0.000195634 0.0 
0.998642 0.000187826 0.0 
1.00636 0.0118479 0.0 
0 0 0.0 
0.995754 -0.000626628 0.0 
0.99586 -0.00376836 0.0 
0.998716 0.00263231 0.0 
1.00006 0.000169309 0.0 
1.00001 0.000225982 0.0 
0.999832 -0.000484956 0.0 
1.0002 0.000153535 0.0 
0 0 0.0 
1.00049 0.00177167 0.0 
1.00527 -0.0108459 0.0 
1.00424 0.00272579 0.0 
0 0 0.0 
0.998764 0.000478986 0.0 
0 0 0.0 
1.00015 -0.00128874 0.0 
1.00189 0.000692818 0.0 
0.977791 -0.00568281 0.0 
0.999597 0.000485193 0.0 
0.998115 -0.00392664 0.0 
0.995883 -0.00694807 0.0 
0.999826 0.00131204 0.0 
1.00011 0.000157094 0.0 
0.999634 -0.000615421 0.0 
0.998925 0.000980779 0.0 
0.999587 -0.000356152 0.0 
1.02277 1.70398e-06 0.0 
0 0 0.0 
1.00002 5.30608e-05 0.0 
1.0186 0.0107676 0.0 
0.999917 0.000241732 0.0 
0.997282 0.00944393 0.0 
1.00228 0.00251042 0.0 
0.068475 -0.0109501 0.0 
1.00009 0.00143565 0.0 
0.999641 -0.00977194 0.0 
1.00078 0.00127412 0.0 
0.996489 -0.00278739 0.0 
4.66114e-08 8.45573e-10 0.0 
1.00007 9.72587e-05 0.0 
0.998935 0.000333138 0.0 
0 0 0.0 
1.00151 0.00307938 0.0 
1.00151 0.00401558 0.0 
2.55982e-07 -9.02503e-09 0.0 
1.00056 0.00357361 0.0 
0.999373 -0.00145187 0.0 
0.999599 -4.40435e-05 0.0 
0.0199018 0.000539445 0.0 
1.00484 -0.00049911 0.0 
1.00038 0.000149509 0.0 
1.00166 0.00196778 0.0 
1.01 -0.00193447 0.0 
1.00009 4.41498e-05 0.0 
1.0012 -0.0014137 0.0 
1.00021 9.15414e-05 0.0 
0.99965 0.00254631 0.0 
0.999951 0.00204141 0.0 
0.109805 0.0206441 0.0 
1.0018 0.00132729 0.0 
0.291313 0.0223142 0.0 
1.00415 -0.000470304 0.0 
1.0001 0.00131884 0.0 
0.999823 0.00199407 0.0 
1.00098 0.000236109 0.0 
0.999976 0.000665779 0.0 
0.999868 0.00168454 0.0 
1.00322 0.00350489 0.0 
1.00049 0.000147273 0.0 
1.01835 -0.0133982 0.0 
1.00301 0.00226059 0.0 
1.00001 9.36572e-05 0.0 
0 0 0.0 
0.999227 1.62943e-05 0.0 
0.997257 0.000821173 0.0 
0.999966 6.59017e-05 0.0 
1.0033 0.0169622 0.0 
0.994128 0.00299664 0.0 
0.999887 -1.73926e-05 0.0 
1.0004 0.000491585 0.0 
0.999652 0.000528842 0.0 
0.999631 0.000585639 0.0 
1.00754e-08 1.33023e-10 0.0 
1.00186 0.0011017 0.0 
0.999044 0.000809403 0.0 
1.0008 -0.00150996 0.0 
1.00182 -0.00138003 0.0 
0.995928 0.00124551 0.0 
0 0 0.0 
0.99752 -0.00247001 0.0 
0.999903 0.00042594 0.0 
0.999204 -0.0012048 0.0 
0 0 0.0 
0.999977 4.08577e-05 0.0 
0.999687 0.000584428 0.0 
1.00043 0.000628461 0.0 
1.0037 0.00329847 0.0 
1.00135 0.000430355 0.0 
1.0007 -0.00483428 0.0 
0.999575 0.000603194 0.0 
1.00182 -0.00396892 0.0 
1.00017 0.000242789 0.0 
0.998594 -0.000749719 0.0 
0.999923 4.16462e-06 0.0 
1.00224 0.000145416 0.0 
1.00052 0.00153208 0.0 
0.999439 0.00274906 0.0 
0.997825 0.00218021 0.0 
0.999915 1.20587e-05 0.0 
1.00058 -0.000720137 0.0 
0.999876 0.00161914 0.0 
1.00011 0.00041626 0.0 
0.107829 -0.0067578 0.0 
1.02639 -0.0566065 0.0 
1.00045 0.000183686 0.0 
1.0048 0.00245386 0.0 
0.170449 -0.00994032 0.0 
0.999049 -0.000265035 0.0 
0.68975 -0.0719137 0.0 
0.99926 -0.00187803 0.0 
1.0002 -0.000463008 0.0 
0.997607 0.00143147 0.0 
1.00208 0.00175736 0.0 
0.998021 -0.00143848 0.0 
0.0152043 0.000588446 0.0 
1.00041 -0.000165325 0.0 
1.00184 -0.00230556 0.0 
1.00024 0.000511339 0.0 
0.999917 0.000144757 0.0 
0.993582 -0.00182443 0.0 
0.999204 0.000102203 0.0 
0.999993 0.000179963 0.0 
0.999176 0.000624045 0.0 
0.980782 -0.0172934 0.0 
1.0017 0.000899749 0.0 
0.997019 -0.00171047 0.0 
1.00494 0.00207564 0.0 
7.70649e-09 5.70795e-10 0.0 
0.999923 1.88633e-06 0.0 
8.23292e-08 3.84464e-08 0.0 
0.999806 -0.000313047 0.0 
0.99224 0.00150545 0.0 
1.00016 0.000649271 0.0 
0.999783 0.000866423 0.0 
1.00177 0.00163615 0.0 
0.988674 -0.00732021 0.0 
0 0 0.0 
0.99992 1.97705e-05 0.0 
1.00694 -0.000332086 0.0 
0.999957 2.6215e-05 0.0 
0.0905057 0.00136453 0.0 
0.0340325 0.00169188 0.0 
0 0 0.0 
1.00006 6.30759e-05 0.0 
0.999788 1.10282e-05 0.0 
1.00027 -0.00106019 0.0 
1.0003 -0.000673432 0.0 
1.00072 -0.00189897 0.0 
1.00068 0.00283334 0.0 
0.99828 -0.00146957 0.0 
1.00143 -0.000922754 0.0 
0.999786 -0.000140403 0.0 
0.137901 -0.0199213 0.0 
0.999941 1.73303e-05 0.0 
0.999503 0.000483676 0.0 
1.00964 0.00127321 0.0 
1.00014 0.000275518 0.0 
0.999219 -0.00111415 0.0 
0.998858 3.82548e-05 0.0 
0.998463 -0.00110026 0.0 
0.999158 -0.000702163 0.0 
1.00006 1.90887e-05 0.0 
0.999798 6.47638e-05 0.0 
0.994328 0.00207298 0.0 
0.999851 0.000707679 0.0 
1.00037 0.000788321 0.0 
1.00097 0.000871693 0.0 
1.00018 -0.000468574 0.0 
0.987975 -0.0100324 0.0 
0.989561 0.00189872 0.0 
1.00819 -0.00131011 0.0 
0.990006 0.000736065 0.0 
0.996296 -0.00545027 0.0 
1.00144 0.00252353 0.0 
1.00306 0.0113808 0.0 
1.01273 -0.00382576 0.0 
0.997014 -0.000486437 0.0 
0.486154 0.186527 0.0 
1.00286 0.00207516 0.0 
1.00113 -0.000935017 0.0 
0.988297 0.00556402 0.0 
1.00053 0.000339157 0.0 
1.00003 0.000456294 0.0 
0.999279 0.000546982 0.0 
1.00086 0.000347538 0.0 
1.00001 0.000305313 0.0 
1.00151 0.0015695 0.0 
1.00011 0.0004162 0.0 
5.55127e-08 -7.09849e-09 0.0 
0.999532 0.000364682 0.0 
0.999848 3.36471e-05 0.0 
0.99536 -0.00434477 0.0 
1.00009 -0.00105238 0.0 
1.00067 0.000114188 0.0 
1.00108 -0.00122207 0.0 
1.00004 0.000183673 0.0 
0.99876 -0.000999261 0.0 
0.997556 -0.000396254 0.0 
0.999266 -0.00292292 0.0 
0.999927 0.00104544 0.0 
0.996639 0.000415741 0.0 
1.00856 0.000657958 0.0 
0.999536 -0.000223976 0.0 
0.99941 -0.000342622 0.0 
0.999888 0.000104291 0.0 
0.999599 0.0038929 0.0 
1.00016 0.000439595 0.0 
0 0 0.0 
0.999983 0.000117188 0.0 
0.999841 -0.000130715 0.0 
0.998627 0.000315636 0.0 
6.1818e-09 -1.68966e-10 0.0 
1.00087 -0.00036896 0.0 
0.999529 -5.62671e-05 0.0 
0.999818 0.000143517 0.0 
1.0002 0.0024937 0.0 
1.00182 -0.0092494 0.0 
1.00124 0.000499938 0.0 
1.00018 0.000781853 0.0 
0 0 0.0 
1.00003 0.000741517 0.0 
1.00197 -0.00316088 0.0 
1.00118 0.001951 0.0 
0.999839 0.000446897 0.0 
0.999865 0.000165195 0.0 
0.999911 0.000152976 0.0 
1.00106 7.23842e-06 0.0 
1.00388 -0.00421894 0.0 
0.998202 0.00164344 0.0 
0.993816 -0.0423623 0.0 
0.999902 9.05031e-05 0.0 
0.999922 0.00251758 0.0 
1.00144 -0.00047003 0.0 
1.00091 4.71532e-05 0.0 
0.996815 0.00380213 0.0 
0 0 0.0 
1.00117 0.000364226 0.0 
0.999018 0.000935671 0.0 
0.989907 -0.0010346 0.0 
1.00174 -0.00025666 0.0 
0.999116 0.000494992 0.0 
1.00029 0.00119102 0.0 
0.999701 -0.000618602 0.0 
1.00033 5.88969e-05 0.0 
0.998866 0.00239161 0.0 
1.00015 0.00127432 0.0 
0.999995 -0.000126345 0.0 
0.999974 -0.00323047 0.0 
0.999973 -7.41618e-05 0.0 
1.00073 0.000272518 0.0 
0.0193438 0.00114723 0.0 
1.00851 -0.00702057 0.0 
1.00285 -0.00589588 0.0 
1.01814 -0.00937487 0.0 
1.0006 0.000107951 0.0 
0.994978 -0.00614001 0.0 
0.999897 0.000583939 0.0 
0 0 0.0 
1.00152 0.00151648 0.0 
0.740531 -0.156614 0.0 
1.03406 -0.0586782 0.0 
0.997017 0.0032188 0.0 
1.00003 -0.000101344 0.0 
0.999926 -0.0071557 0.0 
0.991251 -0.00330255 0.0 
0.999585 0.00657434 0.0 
1.00126 -0.00074875 0.0 
0.334208 0.0339906 0.0 
1.00076 0.00260419 0.0 
1.00072 0.00108096 0.0 
1.00024 0.00132978 0.0 
0.998917 -0.000198495 0.0 
0 0 0.0 
0.999555 -0.00128292 0.0 
1.00146 0.000242932 0.0 
0.998674 0.00366618 0.0 
1.00125 -0.00333388 0.0 
1.00111 0.000478519 0.0 
1.00121 -0.00207124 0.0 
0.998912 -0.00166367 0.0 
0.968301 -0.0153927 0.0 
0.999994 2.92867e-05 0.0 
0.998393 0.00151422 0.0 
0.999866 4.94071e-05 0.0 
1.00124 7.09961e-05 0.0 
1.00211 -0.000776456 0.0 
1.00121 0.000597763 0.0 
1.06398 -0.226886 0.0 
0.999731 -0.00897252 0.0 
0.997967 0.00331277 0.0 
1 0.000296164 0.0 
0.999947 0.000371541 0.0 
1.00127 0.00183206 0.0 
1.00483 6.87044e-05 0.0 
0.999957 -0.000212769 0.0 
1.00001 0.000109761 0.0 
0.989618 -0.0343749 0.0 
0.999917 0.000705535 0.0 
1.00048 -0.000627601 0.0 
0.999953 1.87995e-05 0.0 
1.00217 -0.00345426 0.0 
1.00004 5.99956e-05 0.0 
1.00106 -0.000134611 0.0 
0.999887 0.000222365 0.0 
1.00113 0.000789622 0.0 
0.999458 0.000438769 0.0 
1.00073 0.000516355 0.0 
0.999711 -9.89131e-05 0.0 
1.00014 7.76114e-05 0.0 
0.998692 0.00267921 0.0 
1.00259 0.00199093 0.0 
1.00067 0.000430445 0.0 
1.00355 0.00127098 0.0 
1.00134 -0.00117661 0.0 
0.999781 0.00141865 0.0 
1.00001 4.72752e-05 0.0 
1.00007 8.58753e-05 0.0 
1.00074 -0.000427768 0.0 
1.00286 0.000622374 0.0 
0.998312 0.000304755 0.0 
1.00005 5.39523e-05 0.0 
1.00003 0.000121187 0.0 
1.00009 -0.000599243 0.0 
1.00131 0.000165006 0.0 
0.999932 6.92924e-05 0.0 
1 -4.70937e-05 0.0 
0.999775 -0.000251031 0.0 
1.00055 -0.000548984 0.0 
1.00008 -0.000163954 0.0 
1.00214 -0.00118689 0.0 
0.999917 3.62624e-06 0.0 
0 0 0.0 
0.999386 -0.000465616 0.0 
0.999043 0.00139811 0.0 
0.999911 -0.0012016 0.0 
0.999846 1.53784e-05 0.0 
1.00494 -0.00167006 0.0 
1.00031 -0.000259512 0.0 
1.00009 -0.00120055 0.0 
1.0005 0.000572711 0.0 
0 0 0.0 
1.00001 8.03027e-05 0.0 
1.04413 -0.0891121 0.0 
1.00039 -0.00084137 0.0 
1.00181 0.000418575 0.0 
0.999899 1.63571e-05 0.0 
1.00001 0.000157211 0.0 
0.983082 -0.00582372 0.0 
0.998342 -0.00067003 0.0 
1.00104 -0.000224405 0.0 
0 0 0.0 
1.00109 0.000979566 0.0 
0.999839 6.55777e-05 0.0 
1.00006 3.80833e-05 0.0 
0.999955 6.08203e-05 0.0 
0.999551 0.000469505 0.0 
1.0011 0.000141402 0.0 
0.99948 0.000390699 0.0 
0.994861 0.0478606 0.0 
0.99992 0.000123294 0.0 
0.99958 0.000121344 0.0 
0.998706 -0.000264825 0.0 
1.0008 0.00327502 0.0 
1.00007 0.000871674 0.0 
1.0027 0.00071921 0.0 
0.999832 0.000176029 0.0 
0.999927 -4.19797e-05 0.0 
1.00024 -0.00102867 0.0 
1.00601 -0.000159765 0.0 
1.00002 0.00276683 0.0 
1.00106 7.85557e-05 0.0 
1.00086 -5.3238e-05 0.0 
0.999896 -0.000164088 0.0 
1.00069 0.000639472 0.0 
0.999779 0.0268439 0.0 
1.00111 0.000179542 0.0 
1.1037e-09 -7.62787e-10 0.0 
1.00034 0.00163882 0.0 
0.999463 -0.000271426 0.0 
1.00227 0.00348967 0.0 
0.999885 0.0004501 0.0 
1.00344 0.00217216 0.0 
1.0013 -0.00169656 0.0 
0.998644 0.00249286 0.0 
1.00242 0.00476714 0.0 
1.00008 0.000155734 0.0 
0.999939 -0.000116262 0.0 
1.00253 0.00131672 0.0 
0.998513 0.00512428 0.0 
0.999469 -0.000567038 0.0 
0.998702 0.000644971 0.0 
0.999819 0.000306337 0.0 
0.999438 0.000209121 0.0 
0.999643 0.000152912 0.0 
1.00081 0.000819671 0.0 
1.00205 0.00135644 0.0 
0.999874 -4.03592e-05 0.0 
0.997282 0.000521647 0.0 
0.999912 0.00132178 0.0 
0.999913 2.36905e-05 0.0 
0.999898 0.000129726 0.0 
0.359111 -0.0443155 0.0 
1.00023 0.000351522 0.0 
1.00082 8.37978e-05 0.0 
0.997505 -0.000409958 0.0 
0.999823 7.53227e-05 0.0 
0.999896 -6.07566e-06 0.0 
1.00006 7.89107e-05 0.0 
1.00039 -0.000739182 0.0 
0.999492 0.000263184 0.0 