<VTKFile type="UnstructuredGrid" version="0.1" byte_order="LittleEndian">
  <UnstructuredGrid>
    <Piece NumberOfPoints="23679" NumberOfCells="47236">
      <Points>
        <DataArray type = "Float64" NumberOfComponents="3" format="ascii">
-5 -7 0.0 
15.5 -7 0.0 
15.5 7 0.0 
-5 7 0.0 
7.63511 2.91639 0.0 
1.87049 1.67084 0.0 
-0.605974 -0.287769 0.0 
2.37337 -3.10656 0.0 
0.929906 2.48659 0.0 
0.824948 -0.0289232 0.0 
0.579762 -2.6174 0.0 
2.75639 -0.320238 0.0 
0.600589 -0.0279367 0.0 
0.809974 0.0358912 0.0 
4.52511 -0.0925724 0.0 
0.692729 -0.023898 0.0 
2.14598 1.71184 0.0 
4.47114 -0.725108 0.0 
2.94972 0.812693 0.0 
-2.51884 -5.20772 0.0 
0.933054 -0.00978829 0.0 
-3.39004 -0.0550254 0.0 
0.209319 0.0741243 0.0 
-0.14562 -1.1416 0.0 
0.16355 -0.0415655 0.0 
4.37129 -0.146188 0.0 
0.125896 0.0617342 0.0 
2.89507 -0.00321849 0.0 
0.117818 -0.0547525 0.0 
0.74577 -0.0190427 0.0 
1.20907 -2.59566 0.0 
7.05945 1.36908 0.0 
1.18414 0.837326 0.0 
-0.664239 0.00933663 0.0 
0.988285 -0.635056 0.0 
0.79931 -0.0154644 0.0 
-0.169857 -0.752454 0.0 
-0.535193 0.781979 0.0 
4.50646 0.336854 0.0 
0.675201 -0.447934 0.0 
4.33956 3.92927 0.0 
7.20401 -0.547152 0.0 
5.06202 0.761268 0.0 
-1.83764 -0.830466 0.0 
2.97447 -2.59497 0.0 
1.77447 -4.2029 0.0 
0.203756 0.0741702 0.0 
2.3905 -0.208726 0.0 
-2.38226 0.0491773 0.0 
1.57579 -4.90006 0.0 
0.892623 0.876713 0.0 
0.619187 0.0692661 0.0 
1.81524 2.22933 0.0 
3.20393 -0.375619 0.0 
0.560088 -0.0307549 0.0 
-4.00064 -1.06423 0.0 
4.1637 1.41296 0.0 
2.03909 0.577378 0.0 
3.97155 -0.451817 0.0 
-1.0713 0.305678 0.0 
1.24518 -0.853569 0.0 
5.30713 0.379083 0.0 
0.993214 0.00283989 0.0 
0.513972 -3.72515 0.0 
4.25372 1.90694 0.0 
0.87556 0.025233 0.0 
0.401296 0.0780688 0.0 
0.44761 -0.0359067 0.0 
-3.06259 -0.640688 0.0 
0.58449 -3.29242 0.0 
4.47137 0.702541 0.0 
-0.523713 -0.272593 0.0 
-0.477755 -0.422453 0.0 
0.570246 -0.533547 0.0 
0.538433 -0.0310055 0.0 
5.2741 -1.01059 0.0 
2.21102 -1.39328 0.0 
1.30783 -0.274121 0.0 
4.18709 -1.48886 0.0 
-1.19726 -3.28581 0.0 
-0.0359698 -1.75399 0.0 
0.617039 -0.0263973 0.0 
5.83653 0.150199 0.0 
5.57946 0.224905 0.0 
0.377841 -0.038928 0.0 
1.38254 1.36675 0.0 
2.58372 -1.06479 0.0 
4.70454 -3.6075 0.0 
0.551438 0.113173 0.0 
0.532912 -0.0384617 0.0 
-0.392031 -0.729994 0.0 
4.38556 1.53498 0.0 
-1.34387 -2.96962 0.0 
4.73748 -0.295427 0.0 
5.13252 -2.84762 0.0 
5.34987 1.08334 0.0 
0.326684 0.0802051 0.0 
1.0681 0.191919 0.0 
0.292684 0.0800176 0.0 
-0.288073 -0.693253 0.0 
0.850052 0.029488 0.0 
7.72674 -2.22661 0.0 
5.73402 0.253504 0.0 
3.27298 3.73283 0.0 
2.31769 -0.889324 0.0 
3.24694 -2.57408 0.0 
-0.795775 -5.8192 0.0 
0.667923 -0.0361302 0.0 
0.835769 0.0314682 0.0 
4.69839 -1.50939 0.0 
4.91709 3.01814 0.0 
0.151849 -0.0409087 0.0 
3.55148 0.264681 0.0 
0.842117 -0.794382 0.0 
2.65591 1.43349 0.0 
0.932811 0.0144733 0.0 
-0.764917 -0.926758 0.0 
3.60734 -0.915315 0.0 
-0.605852 0.649115 0.0 
5.76621 -0.263827 0.0 
3.08877 -0.924843 0.0 
0.899825 -0.00795866 0.0 
6.80384 1.26814 0.0 
3.19847 -0.826277 0.0 
0.0166341 -0.0962489 0.0 
3.983 -1.51439 0.0 
5.81155 1.05052 0.0 
0.403773 -0.0376754 0.0 
4.06583 -0.737319 0.0 
3.85222 3.16404 0.0 
7.27994 -0.917065 0.0 
7.01199 -1.44503 0.0 
5.44634 0.7472 0.0 
5.43495 -0.0201864 0.0 
1.51213 -0.834065 0.0 
1.97076 0.806002 0.0 
0.634487 0.0595385 0.0 
-0.572414 -4.29099 0.0 
1.8826 -0.733417 0.0 
0.759381 -0.180619 0.0 
0.40132 0.0778474 0.0 
0.23454 -0.0430222 0.0 
-0.802406 2.95957 0.0 
0.691963 0.0549995 0.0 
5.47277 -0.740356 0.0 
14.1487 4.94071 0.0 
0.0736498 -1.30758 0.0 
-3.24273 0.882011 0.0 
1.37104 -0.876055 0.0 
-0.483647 -0.194829 0.0 
2.83565 1.06937 0.0 
5.52957 -1.21731 0.0 
0.947149 -0.00912481 0.0 
-0.408161 -0.611461 0.0 
-0.824132 1.91234 0.0 
-0.28194 0.734853 0.0 
-2.58987 -0.112571 0.0 
5.39673 0.0810302 0.0 
0.347037 -1.34491 0.0 
1.28521 2.08402 0.0 
0.220369 -0.0424097 0.0 
-0.490215 0.575937 0.0 
1.64934 -1.3049 0.0 
0.153085 0.0664047 0.0 
-0.251695 -2.55503 0.0 
0.826156 -0.0139773 0.0 
3.35673 0.186652 0.0 
4.62807 -2.39408 0.0 
-1.05781 -1.39579 0.0 
-2.54531 4.21509 0.0 
1.60336 1.51116 0.0 
0.713093 0.0498095 0.0 
0.643534 0.0642145 0.0 
-3.64101 4.81173 0.0 
-1.26922 -3.94313 0.0 
-0.342655 -1.12768 0.0 
3.30326 0.952175 0.0 
5.64264 0.331249 0.0 
1.34559 -0.214642 0.0 
1.60527 0.321358 0.0 
0.328683 -0.0401423 0.0 
3.81728 0.37784 0.0 
4.37562 0.758715 0.0 
5.5831 -1.82905 0.0 
-1.49688 0.101849 0.0 
-1.70027 -0.343758 0.0 
0.937041 0.0136815 0.0 
5.60623 1.42522 0.0 
-1.23169 -0.42816 0.0 
1.69627 2.52442 0.0 
1.36245 -1.5082 0.0 
1.25107 -3.80948 0.0 
2.74679 0.528168 0.0 
5.36614 -1.19177 0.0 
0.605019 1.16677 0.0 
-4.58423 -1.62108 0.0 
-2.02651 2.34708 0.0 
3.99339 3.63024 0.0 
-1.36142 -0.0750085 0.0 
5.19766 -0.482867 0.0 
-3.85513 -1.43107 0.0 
0.966422 0.00919783 0.0 
0.247834 0.0870881 0.0 
-0.465649 -0.817954 0.0 
4.29025 4.26714 0.0 
1.18312 -0.431176 0.0 
9.21986 0.0258833 0.0 
5.39136 -0.625475 0.0 
5.56604 0.611257 0.0 
1.96388 -1.61685 0.0 
0.196106 -0.0423443 0.0 
2.93186 0.364486 0.0 
5.88518 0.822328 0.0 
0.824138 -0.0139123 0.0 
-0.47228 -0.526413 0.0 
0.477118 -0.0338206 0.0 
-4.64673 -2.62107 0.0 
4.10712 -0.887195 0.0 
0.710355 0.0501717 0.0 
1.64936 -0.864917 0.0 
-1.61346 -3.22424 0.0 
0.0092848 0.0284272 0.0 
7.26993 2.53793 0.0 
1.1048 2.83071 0.0 
10.1588 1.30502 0.0 
-0.263385 -0.26391 0.0 
13.7005 7 0.0 
0.52333 0.0703707 0.0 
4.58595 -1.29531 0.0 
5.62067 -0.188463 0.0 
0.799738 -0.0147854 0.0 
11.9625 -2.20661 0.0 
5.40435 0.619553 0.0 
3.28687 -1.45096 0.0 
0.458966 0.0872446 0.0 
5.51568 -0.596029 0.0 
-1.63011 3.37507 0.0 
0.293181 -0.0414659 0.0 
0.865321 -2.71027 0.0 
0.786038 -0.0158333 0.0 
0.0736186 0.0492692 0.0 
4.13993 -2.76136 0.0 
0.881421 -0.0921271 0.0 
0.266317 -3.38104 0.0 
4.88629 -0.852705 0.0 
0.437008 0.076424 0.0 
3.8816 4.12562 0.0 
7.92184 -0.0908268 0.0 
0.176354 -0.0480078 0.0 
-0.662142 0.143724 0.0 
6.26015 0.128606 0.0 
0.915518 -0.00670685 0.0 
3.62021 -1.04763 0.0 
1.34876 0.720027 0.0 
0.982357 -3.49725 0.0 
0.663709 0.0566737 0.0 
5.3066 -0.705713 0.0 
-0.944514 -3.61431 0.0 
1.79294 -0.661223 0.0 
-0.342215 2.27409 0.0 
5.88842 -0.367403 0.0 
0.211839 -0.0420107 0.0 
0.654413 -0.0369233 0.0 
3.68564 6.54289 0.0 
5.00064 1.8515 0.0 
0.69027 0.0546811 0.0 
1.12166 0.441142 0.0 
7.31715 -3.60167 0.0 
2.79958 1.64327 0.0 
0.433465 0.0764782 0.0 
0.584196 0.0652607 0.0 
0.0636322 -0.695974 0.0 
-1.81416 1.63551 0.0 
0.74075 0.0465749 0.0 
2.69342 -1.49048 0.0 
4.86008 -1.00044 0.0 
0.822907 -0.0142337 0.0 
-0.164664 0.307939 0.0 
4.48127 5.51069 0.0 
4.4895 -4.79993 0.0 
5.37438 1.55243 0.0 
0.123991 1.28664 0.0 
6.41782 -0.499678 0.0 
3.16721 -0.70129 0.0 
1.99155 -0.729552 0.0 
4.69954 4.16905 0.0 
-1.91695 -2.36563 0.0 
8.09216 1.16816 0.0 
0.242046 0.0802658 0.0 
2.34355 2.47663 0.0 
2.72841 -0.285972 0.0 
13.5916 6.05949 0.0 
1.64671 4.40597 0.0 
3.03209 1.84093 0.0 
-0.498111 0.662759 0.0 
0.765551 -2.10462 0.0 
5.25655 0.61914 0.0 
6.04759 -2.75505 0.0 
1.12471 -0.237361 0.0 
6.40695 -2.14103 0.0 
4.37139 0.883681 0.0 
0.240004 -0.042139 0.0 
-4.55867 -4.42627 0.0 
-1.09286 3.96435 0.0 
-1.07351 0.572111 0.0 
3.73338 -0.828021 0.0 
-0.766762 -0.403459 0.0 
0.402752 -1.68281 0.0 
0.925255 0.0164317 0.0 
0.88786 -0.943606 0.0 
0.505244 -0.025873 0.0 
-0.299243 0.0389379 0.0 
3.36416 0.723434 0.0 
0.636773 1.7916 0.0 
0.0435288 1.09333 0.0 
0.74756 2.65039 0.0 
5.12608 -1.02106 0.0 
3.05399 0.794214 0.0 
3.3685 -2.29577 0.0 
9.40833 4.18552 0.0 
0.726496 1.10014 0.0 
-1.43587 -0.265452 0.0 
1.53809 -0.965095 0.0 
3.65342 -1.2467 0.0 
3.58193 2.86195 0.0 
1.58453 1.05649 0.0 
0.69113 -0.0216886 0.0 
4.67304 -0.737386 0.0 
2.403 -2.53676 0.0 
-0.883615 -1.03632 0.0 
0.570985 0.067201 0.0 
4.5489 1.01634 0.0 
1.30188 0.95494 0.0 
4.78484 -2.98767 0.0 
0.647276 3.74647 0.0 
1.64058 -1.98991 0.0 
5.60464 1.66025 0.0 
-2.46641 -2.76999 0.0 
0.0236771 0.0292808 0.0 
1.83737 -2.85625 0.0 
0.712397 -0.0207427 0.0 
-0.929233 -3.15638 0.0 
5.62429 -0.0217768 0.0 
0.696715 -0.0236006 0.0 
4.31467 0.462465 0.0 
1.90518 -1.00498 0.0 
3.8123 -0.317197 0.0 
-1.40698 0.43063 0.0 
8.12686 0.163945 0.0 
0.0912505 -0.0517404 0.0 
0.360402 0.0788181 0.0 
0.766222 5.08386 0.0 
0.543306 0.227627 0.0 
0.768677 -0.887089 0.0 
13.8069 6.49329 0.0 
3.14545 -0.527242 0.0 
3.00213 0.685174 0.0 
-3.26851 -1.17579 0.0 
0.326091 -0.0407782 0.0 
-0.350969 -1.28117 0.0 
-1.34372 -4.38367 0.0 
-1.47047 0.274883 0.0 
8.69891 -0.824176 0.0 
0.572752 0.0666296 0.0 
3.02391 1.56815 0.0 
0.546825 -0.0304958 0.0 
7.53034 -2.92118 0.0 
0.862614 -3.9233 0.0 
7.46433 -0.686568 0.0 
0.435695 0.0763326 0.0 
-0.291216 -0.600905 0.0 
0.958024 -0.00418663 0.0 
0.996359 0.00209859 0.0 
-3.04054 -1.35802 0.0 
7.86523 -1.29492 0.0 
0.824153 0.0339519 0.0 
-2.0843 -1.39076 0.0 
2.0242 4.23744 0.0 
6.10554 -1.09258 0.0 
0.070474 0.0518922 0.0 
0.253412 0.0852338 0.0 
4.90662 -3.37133 0.0 
5.3389 -1.37998 0.0 
8.18441 -5.4394 0.0 
4.74018 -1.11041 0.0 
-1.45792 -1.69797 0.0 
-0.658439 1.28669 0.0 
-1.47154 1.02941 0.0 
0.548603 -1.30682 0.0 
-4.28372 4.01846 0.0 
0.597388 -0.031556 0.0 
0.976283 3.91053 0.0 
-1.97604 3.44687 0.0 
-0.823498 -1.2495 0.0 
-0.676338 -0.322971 0.0 
0.0194499 -2.00073 0.0 
6.06625 2.2173 0.0 
4.77636 1.32682 0.0 
3.5286 -1.40716 0.0 
2.2348 6.10147 0.0 
4.3501 1.14584 0.0 
-0.374853 0.997283 0.0 
0.331239 -0.0398749 0.0 
2.92416 0.944765 0.0 
-1.08711 -0.79613 0.0 
-2.10643 0.811211 0.0 
10.0853 -2.20029 0.0 
9.19723 -1.4685 0.0 
-3.63493 -2.23583 0.0 
9.13289 -4.40814 0.0 
0.13646 -0.0401233 0.0 
3.73879 -1.49966 0.0 
1.16246 1.31001 0.0 
1.76621 -0.985528 0.0 
0.279409 0.0783782 0.0 
4.49882 0.813878 0.0 
0.0773295 0.0501322 0.0 
-1.7711 -2.7915 0.0 
2.21785 -2.83793 0.0 
1.9729 0.35934 0.0 
6.07917 0.172121 0.0 
-1.06801 -1.19434 0.0 
-0.742511 -0.787541 0.0 
4.55801 -0.996424 0.0 
10.0032 -3.21238 0.0 
4.23955 3.27 0.0 
4.4588 0.213546 0.0 
-3.41169 -1.50587 0.0 
0.374392 0.944982 0.0 
[...]
<PointData>
  <DataArray type = "Float64" Name="VitesseP1" NumberOfComponents="3" format="ascii">
1 0 0.0 
1.00007 0 0.0 
0.999944 0 0.0 
1 0 0.0 
0.999823 -8.25579e-06 0.0 
0.999531 -0.00515415 0.0 
0.98591 -0.0077006 0.0 
1.00148 0.000738763 0.0 
1.00306 -0.00204223 0.0 
0.864177 0.0556971 0.0 
1.0025 -0.000660033 0.0 
0.99817 0.00398117 0.0 
0.0193088 0.000619978 0.0 
0 0 0.0 
0.999186 0.000822481 0.0 
0.15341 0.00962326 0.0 
0.998804 -0.00398287 0.0 
0.99953 0.00108218 0.0 
0.996473 -0.000300787 0.0 
1.00035 -0.000395374 0.0 
0.26764 0.0177589 0.0 
0.999336 0.000550477 0.0 
0.0810816 0.00941978 0.0 
1.00418 -0.00731723 0.0 
1.2295e-08 -5.76642e-10 0.0 
0.999133 0.000929708 0.0 
3.17995e-08 7.07678e-09 0.0 
0.997065 0.00285893 0.0 
1.15896 -0.115356 0.0 
0.0335049 0.0030756 0.0 
1.00251 0.000197462 0.0 
0.999727 0.000107484 0.0 
1.00273 -0.0208815 0.0 
0.98334 0.00241269 0.0 
1.00759 0.00824471 0.0 
0.0249134 0.00118882 0.0 
1.00392 -0.0145436 0.0 
1.00095 0.0135809 0.0 
0.999014 0.000578189 0.0 
1.02107 0.014055 0.0 
0.99994 -0.00048373 0.0 
0.999855 0.000305048 0.0 
0.999255 0.00027163 0.0 
0.997635 -0.00129386 0.0 
1.00116 0.00117189 0.0 
1.0013 0.000161611 0.0 
0.180033 0.0180606 0.0 
0.997406 0.00661125 0.0 
0.99816 0.000867872 0.0 
1.00114 4.44996e-05 0.0 
1.01411 -0.0189682 0.0 
0.592328 -0.0626542 0.0 
1.00078 -0.00328954 0.0 
0.998618 0.00251469 0.0 
0.0494648 0.00303382 0.0 
0.999786 -2.99576e-05 0.0 
0.998845 -0.000237833 0.0 
0.988644 -0.00352358 0.0 
0.999161 0.00138706 0.0 
0.993221 0.00496696 0.0 
1.00579 0.00457244 0.0 
0.999391 0.000398563 0.0 
1.66301e-11 -1.57708e-09 0.0 
1.00151 -0.000417606 0.0 
0.999128 -0.000443033 0.0 
0.0066222 -0.00118393 0.0 
3.89124e-08 -6.4812e-10 0.0 
0 0 0.0 
0.999064 2.66587e-05 0.0 
1.0018 -0.000435535 0.0 
0.998923 0.000336737 0.0 
0.983462 -0.0101408 0.0 
0.989338 -0.0135017 0.0 
1.0225 0.00625234 0.0 
0 0 0.0 
0.999772 0.00074294 0.0 
1.00203 0.00293263 0.0 
0.998433 0.000392847 0.0 
1.00002 0.00126722 0.0 
1.00076 -0.00113568 0.0 
1.00333 -0.0032792 0.0 
0 0 0.0 
0.999575 0.000384823 0.0 
0.999502 0.00040454 0.0 
4.30065e-08 1.98843e-09 0.0 
1.00154 -0.00906235 0.0 
1.00087 0.00340179 0.0 
1.00054 0.000563579 0.0 
1.13385 -0.0833918 0.0 
0.522518 0.0291648 0.0 
0.998304 -0.0126603 0.0 
0.99902 -0.000216059 0.0 
1.00056 -0.00134398 0.0 
0.999369 0.000811472 0.0 
1.00033 0.000650729 0.0 
0.999367 0.000145806 0.0 
0.127425 0.000570263 0.0 
0.974988 -0.0739224 0.0 
0.15921 0.00378102 0.0 
0.999576 -0.015133 0.0 
2.04269e-08 -3.31281e-09 0.0 
1.00005 0.000294234 0.0 
0.999539 0.000377943 0.0 
1.00014 -0.000828778 0.0 
1.00129 0.00435474 0.0 
1.00095 0.00115956 0.0 
1.00074 -0.000218718 0.0 
0.793893 0.0493675 0.0 
0 0 0.0 
0.999961 0.000986136 0.0 
0.999663 -0.000372902 0.0 
0 0 0.0 
0.998047 0.00109674 0.0 
1.01034 0.00504326 0.0 
0.997505 -0.00235942 0.0 
0 0 0.0 
0.997434 -0.00646601 0.0 
0.999618 0.00188586 0.0 
0.997171 0.0138132 0.0 
0.999635 0.000486529 0.0 
0.999847 0.00268842 0.0 
0 0 0.0 
0.999696 0.000118093 0.0 
0.999593 0.00253794 0.0 
1.01119 -0.181109 0.0 
1.00009 0.00139455 0.0 
0.999507 0.000161326 0.0 
0 0 0.0 
0.999456 0.00138511 0.0 
0.999774 -0.00075546 0.0 
0.999901 0.000321168 0.0 
0.999959 0.000377405 0.0 
0.999404 0.000257409 0.0 
0.999506 0.000501596 0.0 
1.00458 0.00449139 0.0 
0.991827 -0.00621992 0.0 
0 0 0.0 
1.00096 -0.000587489 0.0 
1.00326 0.00533549 0.0 
1.017 0.0407537 0.0 
0 0 0.0 
0.0490119 0.000361551 0.0 
1.00213 0.00125951 0.0 
0.147705 -0.0189504 0.0 
0.999705 0.000644012 0.0 
0.999946 5.2263e-06 0.0 
1.00558 -0.00513399 0.0 
0.999515 0.00124918 0.0 
1.0051 0.00436073 0.0 
0.978711 -0.00924615 0.0 
0.996746 -0.00122331 0.0 
0.999854 0.000674515 0.0 
0.28522 0.0185969 0.0 
0.995467 -0.0140163 0.0 
1.00291 0.00334786 0.0 
1.00588 0.0189345 0.0 
0.998465 0.000618881 0.0 
0.999472 0.000480079 0.0 
1.00656 -0.00285474 0.0 
1.0026 -0.00383271 0.0 
8.02147e-09 -2.56654e-10 0.0 
0.997107 0.0179381 0.0 
1.00366 0.00300318 0.0 
0 0 0.0 
1.00181 -0.00169117 0.0 
0.0477589 0.0036164 0.0 
0.997774 0.00142654 0.0 
1.00032 0.000868629 0.0 
0.999252 -0.0037447 0.0 
1.00064 0.000805203 0.0 
1.00006 -0.00702599 0.0 
0 0 0.0 
0.420681 -0.0484506 0.0 
1.00024 0.000653748 0.0 
1.0007 -0.000789078 0.0 
1.00205 -0.00778086 0.0 
0.997556 -0.00024293 0.0 
0.999501 0.000366017 0.0 
0.999109 -0.00356366 0.0 
0.97309 -0.0162683 0.0 
0 0 0.0 
0.998362 0.000778233 0.0 
0.998851 0.000296032 0.0 
1.00003 0.00065854 0.0 
0.995525 0.00188492 0.0 
0.99647 -0.000182124 0.0 
0 0 0.0 
0.999469 5.32162e-05 0.0 
0.994599 -0.00182123 0.0 
1.00127 -0.00260956 0.0 
1.00428 0.00192703 0.0 
1.00153 -1.46723e-06 0.0 
0.995332 0.000744533 0.0 
0.999837 0.00072286 0.0 
1.01475 -0.00600202 0.0 
0.999969 5.58367e-05 0.0 
1.00074 0.00201407 0.0 
0.999911 -0.000627057 0.0 
0.994402 0.000816519 0.0 
0.999575 0.00068662 0.0 
0.999769 -0.0002499 0.0 
0.0179954 -0.00342638 0.0 
1.10343 0.0816798 0.0 
0.998645 -0.0105921 0.0 
1.00003 -0.000443152 0.0 
1.00113 0.00754315 0.0 
0.999923 0.000141398 0.0 
0.999659 0.000650744 0.0 
0.99945 0.000294463 0.0 
1.00263 0.00238525 0.0 
2.01012e-08 -1.02799e-09 0.0 
0.996339 0.00143239 0.0 
0.999526 0.000217564 0.0 
0.0321381 0.00212959 0.0 
0.992418 -0.0133147 0.0 
0 0 0.0 
1.00001 -2.20531e-05 0.0 
0.999586 0.00137224 0.0 
0 0 0.0 
1.00411 0.0044578 0.0 
1.00049 -0.00114707 0.0 
0.670683 0.482804 0.0 
0.999785 -2.18261e-06 0.0 
1.00224 -0.00169417 0.0 
0.999921 7.50949e-05 0.0 
0.978084 -0.0283991 0.0 
0.999942 0 0.0 
0 0 0.0 
0.999866 0.00105723 0.0 
0.999589 0.000503438 0.0 
0 0 0.0 
1.00003 7.23025e-05 0.0 
0.999397 0.000302555 0.0 
1.0004 0.00198078 0.0 
0.938112 -0.048549 0.0 
0.999671 0.000610686 0.0 
1.00117 0.0011534 0.0 
1.94959e-08 8.79562e-10 0.0 
1.00243 -0.000243609 0.0 
0 0 0.0 
7.08356e-08 2.1346e-08 0.0 
1.00056 0.000887903 0.0 
0.994636 0.0508212 0.0 
1.00165 -0.000653398 0.0 
0.999663 0.000880635 0.0 
0 0 0.0 
1.00007 -0.000554198 0.0 
0.999867 0.000213517 0.0 
0.701725 -0.0257064 0.0 
0.984431 0.00731929 0.0 
0.999664 0.000334611 0.0 
0 0 0.0 
0.999773 0.00183683 0.0 
0.995509 -0.02177 0.0 
1.00169 -0.000147124 0.0 
0.011975 -0.00144885 0.0 
0.999669 0.000691985 0.0 
1.00089 -0.000968324 0.0 
1.00383 0.00548773 0.0 
1.00385 0.00163143 0.0 
0.99968 0.000481193 0.0 
0 0 0.0 
0.793398 0.0490111 0.0 
1.00034 -8.19215e-05 0.0 
0.99935 -0.000155334 0.0 
0.106423 -0.013491 0.0 
0.995676 -0.0436206 0.0 
1.0002 0.000279087 0.0 
0.998184 -0.0020542 0.0 
0 0 0.0 
1.51689e-08 -1.16375e-09 0.0 
1.01126 -0.0152142 0.0 
1.00035 0.00282654 0.0 
0.0119762 -0.00162841 0.0 
1.00113 0.00248453 0.0 
0.999732 0.000912338 0.0 
0.0506973 0.00308828 0.0 
0.986984 0.0515281 0.0 
1.00017 -0.00021956 0.0 
1.00065 0.000327498 0.0 
0.999411 -3.3337e-06 0.0 
1.0115 0.00309471 0.0 
0.999777 0.000404971 0.0 
0.999365 0.00263602 0.0 
1.00269 0.00539397 0.0 
0.999955 -0.000376786 0.0 
0.99995 -0.00138304 0.0 
0.999827 0.00011591 0.0 
0.570354 0.0413735 0.0 
0.999988 -0.00226646 0.0 
0.998001 0.00410945 0.0 
0.999942 2.73328e-06 0.0 
1.00097 -0.000626673 0.0 
0.998644 -0.00160968 0.0 
0.998273 0.0160701 0.0 
1.00351 -0.000461484 0.0 
0.999344 0.000317434 0.0 
1.00019 0.000494504 0.0 
0.990223 0.00987928 0.0 
1.00007 0.000472249 0.0 
0.998865 0.000201549 0.0 
0 0 0.0 
1 -7.08609e-05 0.0 
1.00132 0.000656199 0.0 
0.995856 0.00646843 0.0 
0.999511 0.00173585 0.0 
0.990942 -0.00572111 0.0 
1.00481 -0.00192705 0.0 
7.33826e-08 -1.23635e-08 0.0 
1.00874 0.00324977 0.0 
0 0 0.0 
0.953772 0.0081701 0.0 
0.997546 0.000269973 0.0 
1.00659 -0.00281632 0.0 
1.0139 0.00723734 0.0 
1.00303 -0.00139242 0.0 
0.999762 0.000796704 0.0 
0.996767 -8.85952e-05 0.0 
1.00082 0.0013106 0.0 
0.999907 4.25681e-06 0.0 
1.01379 -0.00959058 0.0 
0.995269 -0.000317745 0.0 
1.00436 0.00403392 0.0 
0.999978 0.00175461 0.0 
0.999642 -0.000961127 0.0 
0.997144 -0.0110922 0.0 
0 0 0.0 
0.999573 0.000964902 0.0 
1.00159 0.00116922 0.0 
0.998081 -0.00530707 0.0 
0.0495999 -0.00399588 0.0 
0.99899 0.000124529 0.0 
1.00094 -0.0165014 0.0 
1.00042 0.000692426 0.0 
1.00171 -0.000464329 0.0 
1.00283 0.00137126 0.0 
0.999484 -6.10036e-06 0.0 
1.00001 -0.000989138 0.0 
5.82621e-08 2.99458e-08 0.0 
1.00194 0.000649306 0.0 
4.57725e-08 3.33839e-09 0.0 
1.00093 -0.00124168 0.0 
0.999555 0.000463411 0.0 
0.149092 0.00983928 0.0 
0.998842 0.000533917 0.0 
1.00302 0.00411223 0.0 
0.998935 0.00147893 0.0 
0.996054 0.00359708 0.0 
0.999865 0.000184733 0.0 
1.16265 -0.159133 0.0 
1.40963e-08 5.57588e-10 0.0 
1.00106 -0.000204292 0.0 
1.10469 -0.0514498 0.0 
1.0106 0.00291461 0.0 
0.999942 1.26425e-06 0.0 
0.998949 0.0027142 0.0 
0.996588 0.000206348 0.0 
0.999409 -0.000327255 0.0 
0.0144003 0.000760207 0.0 
1.00208 -0.00623336 0.0 
1.00068 -0.000625934 0.0 
0.99582 0.0026991 0.0 
0.999949 0.000195521 0.0 
0.0153427 -0.00176541 0.0 
0.998108 -0.00153545 0.0 
0 0 0.0 
1.00013 0.000295364 0.0 
1.00147 -0.000186588 0.0 
0.999886 0.000288534 0.0 
0 0 0.0 
0.998012 -0.0175819 0.0 
0 0 0.0 
0 0 0.0 
0.999338 -0.0004831 0.0 
0.999963 0.000273106 0.0 
0.0104174 -0.00208699 0.0 
0.99892 -0.00137783 0.0 
1.00082 -0.000759217 0.0 
0.99986 0.000520408 0.0 
0.795065 0.250604 0.0 
0.97581 0.0669506 0.0 
1.00046 0.000587913 0.0 
0.999901 0.000738353 0.0 
1.00025 0.000107919 0.0 
0.999778 0.000973593 0.0 
0.999456 -0.00241145 0.0 
1.00313 0.00694883 0.0 
0.998865 0.00419437 0.0 
1.00717 -0.00136229 0.0 
1.00005 0.00049469 0.0 
0.292303 0.0172947 0.0 
1.00148 -0.000610745 0.0 
1.00097 0.00117442 0.0 
0.999241 -0.00484164 0.0 
0.988183 -0.0065901 0.0 
1.00293 -0.00233346 0.0 
0.999631 -6.00242e-05 0.0 
0.999162 -9.46039e-06 0.0 
1.0002 0.00179674 0.0 
1.00064 -0.000173992 0.0 
0.998873 1.13537e-05 0.0 
1.00587 0.011386 0.0 
0 0 0.0 
0.996668 -0.000727938 0.0 
0.996147 -0.00400071 0.0 
0.998667 0.00232525 0.0 
1.00004 0.000135057 0.0 
0.999997 0.000178494 0.0 
0.999834 -0.000627312 0.0 
1.00016 0.000129491 0.0 
0 0 0.0 
1.00017 0.00156496 0.0 
1.00446 -0.010014 0.0 
1.00352 0.00413826 0.0 
0 0 0.0 
0.998945 0.000255672 0.0 
0 0 0.0 
1.00025 -0.00129653 0.0 
1.00169 0.000862527 0.0 
0.983236 -1.3567e-05 0.0 
0.999625 0.000348622 0.0 
0.998396 -0.00406976 0.0 
0.996355 -0.00717906 0.0 
0.999705 0.0010624 0.0 
1.00008 0.000128076 0.0 
0.999763 -0.000587846 0.0 
0.99902 0.000673143 0.0 
0.999575 -0.000470422 0.0 
1.02162 -0.000219381 0.0 
0 0 0.0 
1.00001 3.99707e-05 0.0 
1.0177 0.0103463 0.0 
0.999917 0.000182294 0.0 
0.997064 0.00893923 0.0 
1.00152 0.00273729 0.0 
0.0923558 -0.0148486 0.0 
0.999907 0.00120975 0.0 
0.999539 -0.00852309 0.0 
1.00072 0.00115745 0.0 
0.996706 -0.00301434 0.0 
4.86072e-08 8.68136e-10 0.0 
1.00005 7.69714e-05 0.0 
0.999097 0.000153851 0.0 
0 0 0.0 
1.00068 0.00295879 0.0 
1.00129 0.00378743 0.0 
2.56017e-07 -8.72345e-09 0.0 
0.999776 0.00304223 0.0 
0.999576 -0.00131208 0.0 
0.999686 -9.43853e-05 0.0 
0.0225792 0.000594485 0.0 
1.00449 -0.000384839 0.0 
1.00032 0.00013338 0.0 
1.0015 0.00184247 0.0 
1.00928 -0.0018211 0.0 
1.00007 3.50479e-05 0.0 
1.0013 -0.00132794 0.0 
1.00017 7.74333e-05 0.0 
0.99955 0.00230399 0.0 
0.999677 0.00168333 0.0 
0.109684 0.020685 0.0 
1.00147 0.00145767 0.0 
0.293873 0.0224868 0.0 
1.00426 -8.63466e-06 0.0 
1.00006 0.00127797 0.0 
0.999746 0.00175845 0.0 
1.00089 0.000259952 0.0 
0.99992 0.000543536 0.0 
0.999801 0.00145082 0.0 
1.00424 0.00537768 0.0 
1.00041 0.000135874 0.0 
1.01694 -0.0130736 0.0 
1.00236 0.00278858 0.0 
1 7.14838e-05 0.0 
0 0 0.0 
0.999367 -8.02206e-05 0.0 
0.99775 0.000394979 0.0 
0.999971 4.73867e-05 0.0 
1.00287 0.0163385 0.0 
0.995505 0.00172489 0.0 
0.999937 -2.51472e-05 0.0 
1.0003 0.000438864 0.0 
0.999665 0.000390568 0.0 
0.999641 0.000435898 0.0 
1.09307e-08 1.08678e-10 0.0 
1.00172 0.00103905 0.0 
0.999135 0.000549733 0.0 
1.00081 -0.00134014 0.0 
1.00172 -0.00121182 0.0 
0.996002 0.000925496 0.0 
0 0 0.0 
0.997719 -0.00266477 0.0 
0.999881 0.000312766 0.0 
0.999425 -0.0011129 0.0 
0 0 0.0 
0.999977 -2.48169e-05 0.0 
0.999688 0.000441236 0.0 
1.00032 0.000565378 0.0 
1.00252 0.00422242 0.0 
1.00121 0.000506245 0.0 
1.00068 -0.00425329 0.0 
0.999594 0.000443244 0.0 
1.00212 -0.00387768 0.0 
1.00012 0.000203445 0.0 
0.998892 -0.000756105 0.0 
0.999944 2.47038e-06 0.0 
1.00215 0.000376919 0.0 
1.00025 0.00136403 0.0 
0.999339 0.00248128 0.0 
0.998039 0.00144934 0.0 
0.999938 6.65985e-06 0.0 
1.00061 -0.000642613 0.0 
0.999696 0.00132509 0.0 
1.00012 0.000481536 0.0 
0.119257 -0.0074855 0.0 
1.02275 -0.0567282 0.0 
1.00037 0.000165904 0.0 
1.00488 0.00377046 0.0 
0.188278 -0.0110752 0.0 
0.999242 -0.0003281 0.0 
0.75813 -0.0801912 0.0 
0.999489 -0.00167551 0.0 
1.00024 -0.000440719 0.0 
0.997616 0.00116707 0.0 
1.0016 0.00196075 0.0 
0.998448 -0.00134365 0.0 
0.018214 0.000742146 0.0 
1.00044 -0.000150286 0.0 
1.00204 -0.00216852 0.0 
1.00017 0.000440322 0.0 
0.999926 0.000104176 0.0 
0.995047 -0.00155316 0.0 
0.999339 -1.03318e-05 0.0 
0.999984 0.000138832 0.0 
0.999264 0.000414943 0.0 
0.980422 -0.0111186 0.0 
1.00158 0.00085316 0.0 
0.997205 -0.00191078 0.0 
1.00508 0.00309985 0.0 
9.10473e-09 6.56846e-10 0.0 
0.999944 1.03895e-06 0.0 
8.24738e-08 3.93135e-08 0.0 
0.999897 -0.000309609 0.0 
0.992362 0.00104357 0.0 
1.00008 0.000550705 0.0 
0.999732 0.000687644 0.0 
1.00135 0.00176478 0.0 
0.990454 -0.00494959 0.0 
0 0 0.0 
0.999941 1.18131e-05 0.0 
1.00651 0.00567482 0.0 
0.999966 1.75816e-05 0.0 
0.0941632 0.00141255 0.0 
0.0410085 0.00207589 0.0 
0 0 0.0 
1.00005 4.93894e-05 0.0 
0.999842 -2.16983e-05 0.0 
1.00035 -0.00105173 0.0 
1.00035 -0.000611702 0.0 
1.00076 -0.00167642 0.0 
1.00007 0.00249731 0.0 
0.998413 -0.0016011 0.0 
1.00148 -0.000810577 0.0 
0.999861 -0.00015701 0.0 
0.174804 -0.0253974 0.0 
0.999955 1.10105e-05 0.0 
0.999547 0.000336352 0.0 
1.00897 0.00122766 0.0 
1.00009 0.000228578 0.0 
0.999313 -0.00121095 0.0 
0.999062 -9.33668e-05 0.0 
0.998798 -0.00104715 0.0 
0.999361 -0.00069036 0.0 
1.00004 1.38568e-05 0.0 
0.999842 2.43455e-05 0.0 
0.995652 0.00114074 0.0 
0.999809 0.000563117 0.0 
1.00024 0.000697204 0.0 
1.00078 0.000863145 0.0 
1.00024 -0.000431042 0.0 
0.988508 -0.0105887 0.0 
0.992691 0.00125124 0.0 
1.00875 -0.000712727 0.0 
0.992871 0.000515137 0.0 
0.996871 -0.0045878 0.0 
1.00127 0.00235951 0.0 
1.00265 0.0109107 0.0 
1.01197 -0.00366708 0.0 
0.997625 -0.000608606 0.0 
0.48597 0.186321 0.0 
1.00263 0.00197936 0.0 
1.00119 -0.000853032 0.0 
0.992399 0.00335729 0.0 
1.00044 0.00031346 0.0 
1.00003 0.000495163 0.0 
0.999355 0.000363859 0.0 
1.00074 0.000353255 0.0 
0.999984 0.000243212 0.0 
1.00137 0.00146194 0.0 
1.00006 0.000346027 0.0 
7.06743e-08 -9.11139e-09 0.0 
0.999585 0.000241289 0.0 
0.999888 7.50783e-06 0.0 
0.996223 -0.00359901 0.0 
1.00016 -0.00105466 0.0 
1.00065 0.000107035 0.0 
1.00106 -0.00108349 0.0 
1.00002 0.000145529 0.0 
0.999041 -0.000957514 0.0 
0.998049 -0.000522717 0.0 
0.999489 -0.00298641 0.0 
0.999881 0.000987066 0.0 
0.997317 6.09105e-05 0.0 
1.00909 0.00139074 0.0 
0.999651 -0.000255726 0.0 
0.999554 -0.000368265 0.0 
0.999908 6.91414e-05 0.0 
0.999482 0.00362332 0.0 
1.00011 0.000370785 0.0 
0 0 0.0 
0.999981 8.81942e-05 0.0 
0.99991 -0.000141647 0.0 
0.99885 0.000112738 0.0 
6.86823e-09 -1.47394e-10 0.0 
1.00087 -0.000330486 0.0 
0.999628 -0.000112414 0.0 
0.999847 9.12127e-05 0.0 
0.999779 0.00210058 0.0 
1.00238 -0.00921871 0.0 
1.00109 0.000558765 0.0 
1.00018 0.000800064 0.0 
0 0 0.0 
0.99996 0.000614292 0.0 
1.00223 -0.00302845 0.0 
1.00073 0.00189224 0.0 
0.999831 0.000343864 0.0 
0.999883 0.000114782 0.0 
0.999897 9.60177e-06 0.0 
1.001 4.14774e-05 0.0 
1.00425 -0.00399865 0.0 
0.998381 0.00109951 0.0 
0.990194 -0.0404398 0.0 
0.99992 6.00873e-05 0.0 
0.999557 0.00205625 0.0 
1.00137 -0.000400205 0.0 
1.00083 5.2781e-05 0.0 
0.997146 0.00242804 0.0 
0 0 0.0 
1.00111 0.000342912 0.0 
0.998981 0.000726687 0.0 
0.99015 -0.00151967 0.0 
1.00163 -0.000203559 0.0 
0.999228 0.000303511 0.0 
1.00011 0.00103673 0.0 
0.999712 -0.000670766 0.0 
1.00028 5.16586e-05 0.0 
0.998815 0.00212489 0.0 
0.99998 0.00108409 0.0 
1.00006 -0.000123606 0.0 
1.0001 -0.00284192 0.0 
1.00003 -7.4179e-05 0.0 
1.00063 0.000267708 0.0 
0.0232969 0.00135242 0.0 
1.00774 -0.00654251 0.0 
1.00258 -0.00530055 0.0 
1.01921 -0.0089419 0.0 
1.00052 0.000102122 0.0 
0.995773 -0.00502466 0.0 
0.999864 0.000464997 0.0 
0 0 0.0 
1.00114 0.00157238 0.0 
0.74323 -0.160758 0.0 
1.03049 -0.0593041 0.0 
0.996986 0.00286985 0.0 
1.00006 -0.000151204 0.0 
1.00038 -0.00715927 0.0 
0.991525 -0.00380188 0.0 
0.9994 0.00617801 0.0 
1.00122 -0.00065591 0.0 
0.336295 0.0341439 0.0 
1.00063 0.00240908 0.0 
1.00051 0.00101346 0.0 
1.00005 0.00114907 0.0 
0.999127 -0.000283167 0.0 
0 0 0.0 
0.999646 -0.00134147 0.0 
1.00135 0.000342258 0.0 
0.998567 0.00338276 0.0 
1.00151 -0.00326493 0.0 
1.00097 0.000515506 0.0 
1.00137 -0.00197623 0.0 
0.999192 -0.00150709 0.0 
0.969114 -0.000820836 0.0 
0.999994 2.07512e-05 0.0 
0.99837 0.00126104 0.0 
0.999899 2.38349e-05 0.0 
1.00117 0.000137763 0.0 
1.00215 -0.000580783 0.0 
1.00113 0.00055988 0.0 
1.06807 -0.227704 0.0 
1.0003 -0.00905426 0.0 
0.99791 0.0029705 0.0 
1 0.000325346 0.0 
0.999929 0.000292355 0.0 
1.00114 0.00169827 0.0 
1.00499 0.000668425 0.0 
1.00003 -0.000207316 0.0 
1 8.41135e-05 0.0 
0.986269 -0.0315822 0.0 
0.999867 0.000568892 0.0 
1.00052 -0.000564224 0.0 
0.999963 1.22281e-05 0.0 
1.00578 0.00105663 0.0 
1.00003 4.59193e-05 0.0 
1.00103 -9.12688e-05 0.0 
0.999894 0.000163699 0.0 
1.00094 0.000813193 0.0 
0.999515 0.0002942 0.0 
1.00061 0.000497291 0.0 
0.99979 -0.000128254 0.0 
1.00011 6.38278e-05 0.0 
0.998596 0.00193843 0.0 
1.00205 0.00233941 0.0 
1.00065 0.000395201 0.0 
1.00331 0.00185263 0.0 
1.00142 -0.00107034 0.0 
0.999706 0.0012509 0.0 
1.00001 3.50908e-05 0.0 
1.00006 6.81479e-05 0.0 
1.00074 -0.000379195 0.0 
1.00271 0.000991008 0.0 
0.998339 0.000102624 0.0 
1.00003 4.14737e-05 0.0 
1.00002 9.43719e-05 0.0 
1.00013 -0.000616154 0.0 
1.00121 0.000241056 0.0 
0.999945 4.74018e-05 0.0 
0.999999 -0.000121971 0.0 
0.999864 -0.000257971 0.0 
1.00058 -0.00052279 0.0 
1.00011 -0.000184114 0.0 
1.00223 -0.000998911 0.0 
0.99994 1.99232e-06 0.0 
0 0 0.0 
0.999542 -0.00047378 0.0 
0.999001 0.00116509 0.0 
0.999996 -0.00122118 0.0 
0.99989 -7.36468e-06 0.0 
1.00524 -0.00123969 0.0 
1.00034 -0.00024056 0.0 
1.00019 -0.00108008 0.0 
1.00039 0.000522411 0.0 
0 0 0.0 
1 6.08944e-05 0.0 
1.04013 -0.0905122 0.0 
1.00044 -0.000758895 0.0 
1.00167 0.000576511 0.0 
0.999929 7.10851e-06 0.0 
1.00001 0.00017537 0.0 
0.986826 -0.00239352 0.0 
0.998681 -0.000703744 0.0 
1.00102 -0.000174465 0.0 
0 0 0.0 
1.00087 0.000986044 0.0 
0.999875 3.16772e-05 0.0 
1.00004 2.90803e-05 0.0 
0.999963 4.28032e-05 0.0 
0.999588 0.000329783 0.0 
1.00101 0.000181923 0.0 
0.999539 0.000256995 0.0 
0.994392 0.0466017 0.0 
0.99993 8.75808e-05 0.0 
0.999653 4.37138e-05 0.0 
0.998958 -0.000353828 0.0 
1.00063 0.00305154 0.0 
0.999972 0.000730989 0.0 
1.00249 0.000711071 0.0 
0.999854 0.000119727 0.0 
0.999984 -4.4854e-05 0.0 
1.00031 -0.000925077 0.0 
1.00632 0.000499774 0.0 
0.999578 0.00227269 0.0 
1.00098 0.000111403 0.0 
1.00085 -4.30739e-05 0.0 
0.999965 -0.000167075 0.0 
1.00066 0.000585025 0.0 
0.999237 0.0261399 0.0 
1.00106 0.000175969 0.0 
2.83586e-09 -1.1242e-09 0.0 
1.00029 0.00143735 0.0 
0.999593 -0.000301711 0.0 
1.00203 0.00329693 0.0 
0.999868 0.000352218 0.0 
1.00286 0.00289787 0.0 
1.00142 -0.00159948 0.0 
0.998591 0.00179405 0.0 
1.00067 0.00458021 0.0 
1.00006 0.00012539 0.0 
1 -0.000118324 0.0 
1.00404 0.00415017 0.0 
0.997992 0.00355371 0.0 
0.999496 -0.000630088 0.0 
0.99888 0.000380399 0.0 
0.999829 0.000225423 0.0 
0.999523 0.000102142 0.0 
0.999702 7.73173e-05 0.0 
1.00064 0.000790625 0.0 
1.00172 0.00155223 0.0 
0.999929 -5.13929e-05 0.0 
0.99779 0.000174829 0.0 
0.999862 0.00125321 0.0 
0.999936 1.34895e-05 0.0 
0.999913 9.00127e-05 0.0 
0.420163 -0.0641929 0.0 
1.00017 0.000300874 0.0 
1.00073 8.70394e-05 0.0 
0.997598 -0.000630521 0.0 
0.99986 3.7074e-05 0.0 
0.999943 -8.93563e-06 0.0 
1.00004 6.18848e-05 0.0 
1.00045 -0.000719239 0.0 
0.999562 0.000152332 0.0 