<VTKFile type="UnstructuredGrid" version="0.1" byte_order="LittleEndian">
  <UnstructuredGrid>
    <Piece NumberOfPoints="23679" NumberOfCells="47236">
      <Points>
        <DataArray type = "Float64" NumberOfComponents="3" format="ascii">
-5 -7 0.0 
15.5 -7 0.0 
15.5 7 0.0 
-5 7 0.0 
7.63511 2.91639 0.0 
1.87049 1.67084 0.0 
-0.605974 -0.287769 0.0 
2.37337 -3.10656 0.0 
0.929906 2.48659 0.0 
0.824948 -0.0289232 0.0 
0.579762 -2.6174 0.0 
2.75639 -0.320238 0.0 
0.600589 -0.0279367 0.0 
0.809974 0.0358912 0.0 
4.52511 -0.0925724 0.0 
0.692729 -0.023898 0.0 
2.14598 1.71184 0.0 
4.47114 -0.725108 0.0 
2.94972 0.812693 0.0 
-2.51884 -5.20772 0.0 
0.933054 -0.00978829 0.0 
-3.39004 -0.0550254 0.0 
0.209319 0.0741243 0.0 
-0.14562 -1.1416 0.0 
0.16355 -0.0415655 0.0 
4.37129 -0.146188 0.0 
0.125896 0.0617342 0.0 
2.89507 -0.00321849 0.0 
0.117818 -0.0547525 0.0 
0.74577 -0.0190427 0.0 
1.20907 -2.59566 0.0 
7.05945 1.36908 0.0 
1.18414 0.837326 0.0 
-0.664239 0.00933663 0.0 
0.988285 -0.635056 0.0 
0.79931 -0.0154644 0.0 
-0.169857 -0.752454 0.0 
-0.535193 0.781979 0.0 
4.50646 0.336854 0.0 
0.675201 -0.447934 0.0 
4.33956 3.92927 0.0 
7.20401 -0.547152 0.0 
5.06202 0.761268 0.0 
-1.83764 -0.830466 0.0 
2.97447 -2.59497 0.0 
1.77447 -4.2029 0.0 
0.203756 0.0741702 0.0 
2.3905 -0.208726 0.0 
-2.38226 0.0491773 0.0 
1.57579 -4.90006 0.0 
0.892623 0.876713 0.0 
0.619187 0.0692661 0.0 
1.81524 2.22933 0.0 
3.20393 -0.375619 0.0 
0.560088 -0.0307549 0.0 
-4.00064 -1.06423 0.0 
4.1637 1.41296 0.0 
2.03909 0.577378 0.0 
3.97155 -0.451817 0.0 
-1.0713 0.305678 0.0 
1.24518 -0.853569 0.0 
5.30713 0.379083 0.0 
0.993214 0.00283989 0.0 
0.513972 -3.72515 0.0 
4.25372 1.90694 0.0 
0.87556 0.025233 0.0 
0.401296 0.0780688 0.0 
0.44761 -0.0359067 0.0 
-3.06259 -0.640688 0.0 
0.58449 -3.29242 0.0 
4.47137 0.702541 0.0 
-0.523713 -0.272593 0.0 
-0.477755 -0.422453 0.0 
0.570246 -0.533547 0.0 
0.538433 -0.0310055 0.0 
5.2741 -1.01059 0.0 
2.21102 -1.39328 0.0 
1.30783 -0.274121 0.0 
4.18709 -1.48886 0.0 
-1.19726 -3.28581 0.0 
-0.0359698 -1.75399 0.0 
0.617039 -0.0263973 0.0 
5.83653 0.150199 0.0 
5.57946 0.224905 0.0 
0.377841 -0.038928 0.0 
1.38254 1.36675 0.0 
2.58372 -1.06479 0.0 
4.70454 -3.6075 0.0 
0.551438 0.113173 0.0 
0.532912 -0.0384617 0.0 
-0.392031 -0.729994 0.0 
4.38556 1.53498 0.0 
-1.34387 -2.96962 0.0 
4.73748 -0.295427 0.0 
5.13252 -2.84762 0.0 
5.34987 1.08334 0.0 
0.326684 0.0802051 0.0 
1.0681 0.191919 0.0 
0.292684 0.0800176 0.0 
-0.288073 -0.693253 0.0 
0.850052 0.029488 0.0 
7.72674 -2.22661 0.0 
5.73402 0.253504 0.0 
3.27298 3.73283 0.0 
2.31769 -0.889324 0.0 
3.24694 -2.57408 0.0 
-0.795775 -5.8192 0.0 
0.667923 -0.0361302 0.0 
0.835769 0.0314682 0.0 
4.69839 -1.50939 0.0 
4.91709 3.01814 0.0 
0.151849 -0.0409087 0.0 
3.55148 0.264681 0.0 
0.842117 -0.794382 0.0 
2.65591 1.43349 0.0 
0.932811 0.0144733 0.0 
-0.764917 -0.926758 0.0 
3.60734 -0.915315 0.0 
-0.605852 0.649115 0.0 
5.76621 -0.263827 0.0 
3.08877 -0.924843 0.0 
0.899825 -0.00795866 0.0 
6.80384 1.26814 0.0 
3.19847 -0.826277 0.0 
0.0166341 -0.0962489 0.0 
3.983 -1.51439 0.0 
5.81155 1.05052 0.0 
0.403773 -0.0376754 0.0 
4.06583 -0.737319 0.0 
3.85222 3.16404 0.0 
7.27994 -0.917065 0.0 
7.01199 -1.44503 0.0 
5.44634 0.7472 0.0 
5.43495 -0.0201864 0.0 
1.51213 -0.834065 0.0 
1.97076 0.806002 0.0 
0.634487 0.0595385 0.0 
-0.572414 -4.29099 0.0 
1.8826 -0.733417 0.0 
0.759381 -0.180619 0.0 
0.40132 0.0778474 0.0 
0.23454 -0.0430222 0.0 
-0.802406 2.95957 0.0 
0.691963 0.0549995 0.0 
5.47277 -0.740356 0.0 
14.1487 4.94071 0.0 
0.0736498 -1.30758 0.0 
-3.24273 0.882011 0.0 
1.37104 -0.876055 0.0 
-0.483647 -0.194829 0.0 
2.83565 1.06937 0.0 
5.52957 -1.21731 0.0 
0.947149 -0.00912481 0.0 
-0.408161 -0.611461 0.0 
-0.824132 1.91234 0.0 
-0.28194 0.734853 0.0 
-2.58987 -0.112571 0.0 
5.39673 0.0810302 0.0 
0.347037 -1.34491 0.0 
1.28521 2.08402 0.0 
0.220369 -0.0424097 0.0 
-0.490215 0.575937 0.0 
1.64934 -1.3049 0.0 
0.153085 0.0664047 0.0 
-0.251695 -2.55503 0.0 
0.826156 -0.0139773 0.0 
3.35673 0.186652 0.0 
4.62807 -2.39408 0.0 
-1.05781 -1.39579 0.0 
-2.54531 4.21509 0.0 
1.60336 1.51116 0.0 
0.713093 0.0498095 0.0 
0.643534 0.0642145 0.0 
-3.64101 4.81173 0.0 
-1.26922 -3.94313 0.0 
-0.342655 -1.12768 0.0 
3.30326 0.952175 0.0 
5.64264 0.331249 0.0 
1.34559 -0.214642 0.0 
1.60527 0.321358 0.0 
0.328683 -0.0401423 0.0 
3.81728 0.37784 0.0 
4.37562 0.758715 0.0 
5.5831 -1.82905 0.0 
-1.49688 0.101849 0.0 
-1.70027 -0.343758 0.0 
0.937041 0.0136815 0.0 
5.60623 1.42522 0.0 
-1.23169 -0.42816 0.0 
1.69627 2.52442 0.0 
1.36245 -1.5082 0.0 
1.25107 -3.80948 0.0 
2.74679 0.528168 0.0 
5.36614 -1.19177 0.0 
0.605019 1.16677 0.0 
-4.58423 -1.62108 0.0 
-2.02651 2.34708 0.0 
3.99339 3.63024 0.0 
-1.36142 -0.0750085 0.0 
5.19766 -0.482867 0.0 
-3.85513 -1.43107 0.0 
0.966422 0.00919783 0.0 
0.247834 0.0870881 0.0 
-0.465649 -0.817954 0.0 
4.29025 4.26714 0.0 
1.18312 -0.431176 0.0 
9.21986 0.0258833 0.0 
5.39136 -0.625475 0.0 
5.56604 0.611257 0.0 
1.96388 -1.61685 0.0 
0.196106 -0.0423443 0.0 
2.93186 0.364486 0.0 
5.88518 0.822328 0.0 
0.824138 -0.0139123 0.0 
-0.47228 -0.526413 0.0 
0.477118 -0.0338206 0.0 
-4.64673 -2.62107 0.0 
4.10712 -0.887195 0.0 
0.710355 0.0501717 0.0 
1.64936 -0.864917 0.0 
-1.61346 -3.22424 0.0 
0.0092848 0.0284272 0.0 
7.26993 2.53793 0.0 
1.1048 2.83071 0.0 
10.1588 1.30502 0.0 
-0.263385 -0.26391 0.0 
13.7005 7 0.0 
0.52333 0.0703707 0.0 
4.58595 -1.29531 0.0 
5.62067 -0.188463 0.0 
0.799738 -0.0147854 0.0 
11.9625 -2.20661 0.0 
5.40435 0.619553 0.0 
3.28687 -1.45096 0.0 
0.458966 0.0872446 0.0 
5.51568 -0.596029 0.0 
-1.63011 3.37507 0.0 
0.293181 -0.0414659 0.0 
0.865321 -2.71027 0.0 
0.786038 -0.0158333 0.0 
0.0736186 0.0492692 0.0 
4.13993 -2.76136 0.0 
0.881421 -0.0921271 0.0 
0.266317 -3.38104 0.0 
4.88629 -0.852705 0.0 
0.437008 0.076424 0.0 
3.8816 4.12562 0.0 
7.92184 -0.0908268 0.0 
0.176354 -0.0480078 0.0 
-0.662142 0.143724 0.0 
6.26015 0.128606 0.0 
0.915518 -0.00670685 0.0 
3.62021 -1.04763 0.0 
1.34876 0.720027 0.0 
0.982357 -3.49725 0.0 
0.663709 0.0566737 0.0 
5.3066 -0.705713 0.0 
-0.944514 -3.61431 0.0 
1.79294 -0.661223 0.0 
-0.342215 2.27409 0.0 
5.88842 -0.367403 0.0 
0.211839 -0.0420107 0.0 
0.654413 -0.0369233 0.0 
3.68564 6.54289 0.0 
5.00064 1.8515 0.0 
0.69027 0.0546811 0.0 
1.12166 0.441142 0.0 
7.31715 -3.60167 0.0 
2.79958 1.64327 0.0 
0.433465 0.0764782 0.0 
0.584196 0.0652607 0.0 
0.0636322 -0.695974 0.0 
-1.81416 1.63551 0.0 
0.74075 0.0465749 0.0 
2.69342 -1.49048 0.0 
4.86008 -1.00044 0.0 
0.822907 -0.0142337 0.0 
-0.164664 0.307939 0.0 
4.48127 5.51069 0.0 
4.4895 -4.79993 0.0 
5.37438 1.55243 0.0 
0.123991 1.28664 0.0 
6.41782 -0.499678 0.0 
3.16721 -0.70129 0.0 
1.99155 -0.729552 0.0 
4.69954 4.16905 0.0 
-1.91695 -2.36563 0.0 
8.09216 1.16816 0.0 
0.242046 0.0802658 0.0 
2.34355 2.47663 0.0 
2.72841 -0.285972 0.0 
13.5916 6.05949 0.0 
1.64671 4.40597 0.0 
3.03209 1.84093 0.0 
-0.498111 0.662759 0.0 
0.765551 -2.10462 0.0 
5.25655 0.61914 0.0 
6.04759 -2.75505 0.0 
1.12471 -0.237361 0.0 
6.40695 -2.14103 0.0 
4.37139 0.883681 0.0 
0.240004 -0.042139 0.0 
-4.55867 -4.42627 0.0 
-1.09286 3.96435 0.0 
-1.07351 0.572111 0.0 
3.73338 -0.828021 0.0 
-0.766762 -0.403459 0.0 
0.402752 -1.68281 0.0 
0.925255 0.0164317 0.0 
0.88786 -0.943606 0.0 
0.505244 -0.025873 0.0 
-0.299243 0.0389379 0.0 
3.36416 0.723434 0.0 
0.636773 1.7916 0.0 
0.0435288 1.09333 0.0 
0.74756 2.65039 0.0 
5.12608 -1.02106 0.0 
3.05399 0.794214 0.0 
3.3685 -2.29577 0.0 
9.40833 4.18552 0.0 
0.726496 1.10014 0.0 
-1.43587 -0.265452 0.0 
1.53809 -0.965095 0.0 
3.65342 -1.2467 0.0 
3.58193 2.86195 0.0 
1.58453 1.05649 0.0 
0.69113 -0.0216886 0.0 
4.67304 -0.737386 0.0 
2.403 -2.53676 0.0 
-0.883615 -1.03632 0.0 
0.570985 0.067201 0.0 
4.5489 1.01634 0.0 
1.30188 0.95494 0.0 
4.78484 -2.98767 0.0 
0.647276 3.74647 0.0 
1.64058 -1.98991 0.0 
5.60464 1.66025 0.0 
-2.46641 -2.76999 0.0 
0.0236771 0.0292808 0.0 
1.83737 -2.85625 0.0 
0.712397 -0.0207427 0.0 
-0.929233 -3.15638 0.0 
5.62429 -0.0217768 0.0 
0.696715 -0.0236006 0.0 
4.31467 0.462465 0.0 
1.90518 -1.00498 0.0 
3.8123 -0.317197 0.0 
-1.40698 0.43063 0.0 
8.12686 0.163945 0.0 
0.0912505 -0.0517404 0.0 
0.360402 0.0788181 0.0 
0.766222 5.08386 0.0 
0.543306 0.227627 0.0 
0.768677 -0.887089 0.0 
13.8069 6.49329 0.0 
3.14545 -0.527242 0.0 
3.00213 0.685174 0.0 
-3.26851 -1.17579 0.0 
0.326091 -0.0407782 0.0 
-0.350969 -1.28117 0.0 
-1.34372 -4.38367 0.0 
-1.47047 0.274883 0.0 
8.69891 -0.824176 0.0 
0.572752 0.0666296 0.0 
3.02391 1.56815 0.0 
0.546825 -0.0304958 0.0 
7.53034 -2.92118 0.0 
0.862614 -3.9233 0.0 
7.46433 -0.686568 0.0 
0.435695 0.0763326 0.0 
-0.291216 -0.600905 0.0 
0.958024 -0.00418663 0.0 
0.996359 0.00209859 0.0 
-3.04054 -1.35802 0.0 
7.86523 -1.29492 0.0 
0.824153 0.0339519 0.0 
-2.0843 -1.39076 0.0 
2.0242 4.23744 0.0 
6.10554 -1.09258 0.0 
0.070474 0.0518922 0.0 
0.253412 0.0852338 0.0 
4.90662 -3.37133 0.0 
5.3389 -1.37998 0.0 
8.18441 -5.4394 0.0 
4.74018 -1.11041 0.0 
-1.45792 -1.69797 0.0 
-0.658439 1.28669 0.0 
-1.47154 1.02941 0.0 
0.548603 -1.30682 0.0 
-4.28372 4.01846 0.0 
0.597388 -0.031556 0.0 
0.976283 3.91053 0.0 
-1.97604 3.44687 0.0 
-0.823498 -1.2495 0.0 
-0.676338 -0.322971 0.0 
0.0194499 -2.00073 0.0 
6.06625 2.2173 0.0 
4.77636 1.32682 0.0 
3.5286 -1.40716 0.0 
2.2348 6.10147 0.0 
4.3501 1.14584 0.0 
-0.374853 0.997283 0.0 
0.331239 -0.0398749 0.0 
2.92416 0.944765 0.0 
-1.08711 -0.79613 0.0 
-2.10643 0.811211 0.0 
10.0853 -2.20029 0.0 
9.19723 -1.4685 0.0 
-3.63493 -2.23583 0.0 
9.13289 -4.40814 0.0 
0.13646 -0.0401233 0.0 
3.73879 -1.49966 0.0 
1.16246 1.31001 0.0 
1.76621 -0.985528 0.0 
0.279409 0.0783782 0.0 
4.49882 0.813878 0.0 
0.0773295 0.0501322 0.0 
-1.7711 -2.7915 0.0 
2.21785 -2.83793 0.0 
1.9729 0.35934 0.0 
6.07917 0.172121 0.0 
-1.06801 -1.19434 0.0 
-0.742511 -0.787541 0.0 
4.55801 -0.996424 0.0 
10.0032 -3.21238 0.0 
4.23955 3.27 0.0 
4.4588 0.213546 0.0 
-3.41169 -1.50587 0.0 
0.374392 0.944982 0.0 
[...]
<PointData>
  <DataArray type = "Float64" Name="VitesseP1" NumberOfComponents="3" format="ascii">
1 0 0.0 
1.00043 0 0.0 
0.999592 0 0.0 
1 0 0.0 
0.998264 0.00043793 0.0 
1.00517 -0.00776705 0.0 
0.98373 -0.00305251 0.0 
1.00162 -0.0012274 0.0 
1.00636 -0.00155972 0.0 
0.622287 0.0382605 0.0 
1.00117 -0.00168214 0.0 
1.0004 -0.00527842 0.0 
0.0114197 0.000353806 0.0 
0 0 0.0 
0.965994 -0.0104296 0.0 
0.0868991 0.00541611 0.0 
1.00368 -0.0075219 0.0 
1.00699 -0.00400931 0.0 
0.999493 -0.00982147 0.0 
1.0001 -0.000173091 0.0 
0.147638 0.00992542 0.0 
0.999515 0.00127975 0.0 
0.0778808 0.00949484 0.0 
1.0011 -0.00636551 0.0 
1.24809e-08 -4.86187e-10 0.0 
1.01043 -0.00949864 0.0 
3.1361e-08 6.97171e-09 0.0 
0.863466 -0.00692097 0.0 
1.14128 -0.113284 0.0 
0.0180409 0.00168691 0.0 
1.00135 -0.00145398 0.0 
0.997152 0.00183248 0.0 
1.0139 -0.0184054 0.0 
0.982524 0.00779099 0.0 
1.00305 0.00758581 0.0 
0.0130789 0.000618347 0.0 
0.999658 -0.0124674 0.0 
1.00293 0.0183621 0.0 
0.990478 -0.0111641 0.0 
1.01714 0.0117306 0.0 
0.999314 -0.00179426 0.0 
1.00083 0.00381747 0.0 
0.990275 -0.00403916 0.0 
0.997323 0.000619769 0.0 
1.00203 -0.00147898 0.0 
1.00129 -0.000874929 0.0 
0.174535 0.0175889 0.0 
0.99897 -0.00563018 0.0 
0.998393 0.00256646 0.0 
1.00117 -0.000656174 0.0 
1.02288 -0.0143068 0.0 
0.415219 -0.0409744 0.0 
1.0045 -0.00494959 0.0 
1.00165 -0.00540095 0.0 
0.0306326 0.00186728 0.0 
0.999825 0.000402416 0.0 
0.996194 -0.00620318 0.0 
1.00029 -0.0133256 0.0 
1.00425 -0.00624808 0.0 
0.993566 0.00894521 0.0 
1.00066 0.00255512 0.0 
0.985441 -0.00152122 0.0 
-3.00823e-09 -6.51093e-10 0.0 
1.00088 -0.00118799 0.0 
0.997111 -0.00470451 0.0 
-0.000733932 0.000139076 0.0 
3.24143e-08 -4.32044e-10 0.0 
0 0 0.0 
0.999198 0.00102736 0.0 
1.00096 -0.00135974 0.0 
0.992578 -0.00833426 0.0 
0.981075 -0.00507711 0.0 
0.986407 -0.00931986 0.0 
1.01779 0.00447581 0.0 
0 0 0.0 
1.00712 0.00082218 0.0 
1.00065 -0.00200377 0.0 
0.987892 0.00549352 0.0 
1.00413 -0.00224043 0.0 
1.0001 -0.000764994 0.0 
1.00117 -0.00315018 0.0 
0 0 0.0 
0.98634 0.00860618 0.0 
0.983289 0.00377037 0.0 
3.39119e-08 1.55301e-09 0.0 
1.00909 -0.00944873 0.0 
1.00071 -0.00310968 0.0 
1.00239 -0.000269315 0.0 
1.13163 -0.069324 0.0 
0.386686 0.02019 0.0 
0.995099 -0.00992 0.0 
0.995979 -0.00529811 0.0 
0.999912 -0.000798292 0.0 
1.01154 -0.0056541 0.0 
1.00296 -2.36421e-05 0.0 
0.992367 -0.00173863 0.0 
0.116583 0.000465802 0.0 
0.996233 -0.0622885 0.0 
0.149268 0.00371919 0.0 
0.9959 -0.012389 0.0 
-7.2382e-10 -3.23512e-11 0.0 
1.0016 0.00160553 0.0 
0.986359 0.00602384 0.0 
1.00047 -0.00237232 0.0 
0.999867 -0.00299068 0.0 
1.00223 -0.00146325 0.0 
1.00036 -0.000247626 0.0 
0.593549 0.0343727 0.0 
0 0 0.0 
1.00493 -0.00114439 0.0 
0.998089 -0.00208319 0.0 
0 0 0.0 
0.997813 -0.0117298 0.0 
1.00594 0.00383451 0.0 
1.00109 -0.00830075 0.0 
0 0 0.0 
0.995555 -0.00410529 0.0 
1.00309 -0.00420292 0.0 
0.998904 0.0187705 0.0 
1.0106 0.00813104 0.0 
1.00173 -0.00392732 0.0 
0 0 0.0 
0.996614 0.00194798 0.0 
1.00193 -0.0042528 0.0 
0.996064 -0.171472 0.0 
1.0037 -0.00244242 0.0 
0.993117 0.000771934 0.0 
0 0 0.0 
1.00482 -0.00481281 0.0 
0.999508 -0.0029697 0.0 
1.00134 0.00319664 0.0 
1.00217 0.00261252 0.0 
0.990143 -0.00066872 0.0 
0.993984 0.00607283 0.0 
0.998873 0.000789007 0.0 
1.00224 -0.0130349 0.0 
0 0 0.0 
1.00042 -0.000714353 0.0 
0.998129 -0.00176919 0.0 
1.01691 0.0355201 0.0 
0 0 0.0 
0.047481 0.000482024 0.0 
1.00345 0.00266064 0.0 
0.0628488 -0.00779467 0.0 
1.0081 0.0027313 0.0 
0.999569 0.000123544 0.0 
1.00246 -0.00480969 0.0 
0.99977 0.00191915 0.0 
0.999795 0.0015906 0.0 
0.97653 -0.00361795 0.0 
1.00016 -0.00924722 0.0 
1.00573 0.00155526 0.0 
0.159145 0.0105391 0.0 
0.992187 -0.0109238 0.0 
1.00475 0.00581729 0.0 
1.00859 0.0243731 0.0 
0.998663 0.00206147 0.0 
0.978304 0.00150009 0.0 
1.00335 -0.00324831 0.0 
1.00703 -0.00408473 0.0 
7.92024e-09 -1.86202e-10 0.0 
0.998476 0.0232351 0.0 
1.00049 -0.000793716 0.0 
0 0 0.0 
1.00054 -0.00178856 0.0 
0.0249659 0.00190164 0.0 
0.998783 -0.0115549 0.0 
1.00333 -0.000645885 0.0 
0.99793 -0.00207714 0.0 
1.0007 0.00104927 0.0 
1.00677 -0.00855068 0.0 
0 0 0.0 
0.255071 -0.0276426 0.0 
1.00019 0.000471833 0.0 
1.00019 -0.000548943 0.0 
0.999361 -0.0062554 0.0 
0.998616 -0.00912585 0.0 
0.986878 0.0038731 0.0 
0.985734 0.00304194 0.0 
0.996258 -0.0197423 0.0 
0 0 0.0 
0.996321 -0.011577 0.0 
0.993404 -0.00836944 0.0 
1.00416 0.000908094 0.0 
0.995626 0.00483315 0.0 
0.996257 0.00219584 0.0 
0 0 0.0 
0.994272 -0.000897813 0.0 
0.993802 0.00118518 0.0 
1.00444 -0.00378074 0.0 
1.00141 -0.000766073 0.0 
1.00116 -0.0010754 0.0 
0.999549 -0.0105459 0.0 
1.00607 0.00103982 0.0 
1.02077 -0.00227627 0.0 
0.999982 9.54504e-05 0.0 
1.00139 0.00320637 0.0 
0.999522 -0.00229163 0.0 
0.994225 0.00396708 0.0 
1.01133 0.00102792 0.0 
0.999796 0.000303803 0.0 
-0.0122973 0.00249829 0.0 
1.09409 0.0824289 0.0 
0.995814 -0.00798085 0.0 
0.999557 -0.00153801 0.0 
0.995229 0.00922047 0.0 
0.999786 0.00157462 0.0 
1.00919 0.00257707 0.0 
0.989305 0.000877316 0.0 
1.001 -0.00155585 0.0 
1.99049e-08 -9.77192e-10 0.0 
0.999224 -0.0106095 0.0 
0.992428 0.00193727 0.0 
0.0167461 0.00109761 0.0 
0.989505 -0.00963486 0.0 
0 0 0.0 
0.999996 1.21287e-05 0.0 
1.00489 -0.00408521 0.0 
0 0 0.0 
0.998882 -0.000220753 0.0 
0.999965 -0.000616481 0.0 
0.687387 0.501403 0.0 
0.997915 0.000519309 0.0 
1.005 -0.00163459 0.0 
0.999461 0.000965093 0.0 
0.973606 -0.0225182 0.0 
0.999504 0 0.0 
0 0 0.0 
1.0053 -0.00179928 0.0 
1.01327 0.00823174 0.0 
0 0 0.0 
1.00037 0.000599717 0.0 
0.988814 -0.000711503 0.0 
1.00234 -0.00287733 0.0 
0.860369 -0.0389685 0.0 
1.00893 0.00354956 0.0 
1.00177 0.00196892 0.0 
1.77332e-08 8.11218e-10 0.0 
1.00124 -0.00153661 0.0 
0 0 0.0 
6.98685e-08 2.11165e-08 0.0 
1.00276 -0.000902286 0.0 
1.00112 0.0464048 0.0 
1.0008 -0.00132594 0.0 
1.0079 -0.00143545 0.0 
0 0 0.0 
0.999855 -0.00180758 0.0 
0.999745 0.0027487 0.0 
0.694841 -0.0260461 0.0 
0.984378 0.0125964 0.0 
0.995167 0.00903162 0.0 
0 0 0.0 
1.00308 -0.00384323 0.0 
1.00884 -0.0205372 0.0 
1.0011 -0.00122774 0.0 
0.00487302 -0.00058899 0.0 
1.00887 0.00159344 0.0 
1.00026 -0.000773474 0.0 
0.997322 -0.00142114 0.0 
1.00614 0.00379527 0.0 
1.00752 0.00718083 0.0 
0 0 0.0 
0.597938 0.0342896 0.0 
1.00022 -0.000213796 0.0 
0.995781 -0.00290733 0.0 
0.0436542 -0.00535674 0.0 
1.01131 -0.0366474 0.0 
1.00181 0.000795319 0.0 
1.00098 -0.00739485 0.0 
0 0 0.0 
8.2211e-09 -5.44366e-10 0.0 
1.00632 -0.0140336 0.0 
1.00124 0.00463925 0.0 
0.00322719 -0.000433313 0.0 
1.00139 -0.00250029 0.0 
1.00702 -0.00128616 0.0 
0.0265328 0.0015851 0.0 
0.989265 0.0591057 0.0 
0.999768 -0.000686 0.0 
1.00193 -0.000203521 0.0 
0.994663 -0.0018245 0.0 
1.01554 0.00720297 0.0 
1.00284 0.00583698 0.0 
1.00168 -0.00456066 0.0 
0.998365 -0.00232197 0.0 
0.999205 -0.00142082 0.0 
0.999486 -0.000544068 0.0 
0.998601 0.0017891 0.0 
0.554428 0.0405704 0.0 
1.00251 -0.00469346 0.0 
1.00009 -0.00536274 0.0 
0.999505 6.32884e-05 0.0 
1.00198 -0.000948013 0.0 
1.00043 -0.00657684 0.0 
1.00048 0.0212501 0.0 
1.00157 -0.00173881 0.0 
0.988617 -0.00230569 0.0 
1.00276 0.000768098 0.0 
0.986642 0.0165694 0.0 
1.00291 0.00150293 0.0 
0.993842 -0.00771508 0.0 
0 0 0.0 
1 -2.98154e-05 0.0 
1.00193 0.00136143 0.0 
0.996711 0.0104022 0.0 
1.0035 -0.00450883 0.0 
0.989243 -0.00198196 0.0 
1.00225 -0.00253844 0.0 
-2.58109e-08 4.08241e-09 0.0 
1.00454 0.00193581 0.0 
0 0 0.0 
0.952629 0.0164756 0.0 
0.998277 -0.00985644 0.0 
1.01126 -0.000859971 0.0 
1.01785 0.0118656 0.0 
1.00598 -0.000658542 0.0 
1.00712 7.25122e-05 0.0 
0.999206 -0.00977538 0.0 
1.00234 -0.00164756 0.0 
0.999025 0.000313928 0.0 
1.02095 -0.00581852 0.0 
0.994966 0.00255185 0.0 
0.999565 0.000254391 0.0 
1.00313 -0.00328201 0.0 
0.99972 -0.00364708 0.0 
1.00704 -0.0130871 0.0 
0 0 0.0 
1.00787 -0.00306308 0.0 
1.00164 -0.00148256 0.0 
0.996457 -0.00318834 0.0 
0.0286413 -0.00223287 0.0 
0.993603 -0.00636319 0.0 
1.01142 -0.0155161 0.0 
1.00284 -0.000325866 0.0 
1.00323 -1.21472e-05 0.0 
1.00127 -0.00135455 0.0 
0.995052 -0.00108231 0.0 
0.999734 -0.000297318 0.0 
5.76286e-08 2.90906e-08 0.0 
1.00146 -0.00133107 0.0 
2.48006e-08 1.87907e-09 0.0 
1.00017 -0.000963384 0.0 
0.999967 0.0107405 0.0 
0.0842035 0.00553976 0.0 
0.992765 -0.0106681 0.0 
0.999495 -0.00148953 0.0 
1.00326 -0.0066165 0.0 
0.996516 0.00682212 0.0 
0.999459 0.00241019 0.0 
1.14352 -0.155681 0.0 
1.233e-08 5.50964e-10 0.0 
1.00171 -3.50264e-05 0.0 
1.1067 -0.0394019 0.0 
1.0064 0.00179126 0.0 
0.999514 3.28347e-05 0.0 
1.00147 -0.00499031 0.0 
0.999311 -0.0100723 0.0 
0.999474 0.000538994 0.0 
0.01237 0.000611148 0.0 
0.99956 -0.00502009 0.0 
1.00023 -0.000433047 0.0 
0.996149 0.00576698 0.0 
1.00036 0.0018753 0.0 
0.00872047 -0.00100458 0.0 
1.00012 -0.00744106 0.0 
0 0 0.0 
1.00177 0.0011563 0.0 
1.001 -0.00107424 0.0 
1.00081 0.00320789 0.0 
0 0 0.0 
0.993955 -0.0143993 0.0 
0 0 0.0 
0 0 0.0 
0.999348 0.000432919 0.0 
1.00111 0.00226992 0.0 
0.00074186 -0.000134804 0.0 
0.998539 3.66742e-07 0.0 
1.00178 -0.0013887 0.0 
1.00439 0.00328997 0.0 
0.796655 0.251497 0.0 
0.95999 0.0669428 0.0 
1.00254 -0.000173666 0.0 
1.00544 0.000768226 0.0 
1.00141 0.000305675 0.0 
1.00624 -0.00161433 0.0 
0.998659 -0.00107918 0.0 
1.00528 0.0104708 0.0 
0.999854 0.00693696 0.0 
1.00376 -0.00214471 0.0 
1.00004 0.000386404 0.0 
0.186594 0.0107798 0.0 
1.00288 -0.000477848 0.0 
1.00138 0.00182773 0.0 
0.997576 -0.00315359 0.0 
0.986314 -0.00230858 0.0 
1.00101 -0.00254464 0.0 
0.996667 -0.000391076 0.0 
0.994158 -0.00447816 0.0 
1.00281 -0.00295199 0.0 
1.00094 -0.000328463 0.0 
0.994822 -0.00664116 0.0 
1.00845 0.0160419 0.0 
0 0 0.0 
0.99975 -0.00949414 0.0 
0.994917 -0.00146642 0.0 
0.999171 0.00429433 0.0 
1.00062 0.000980532 0.0 
1.00058 0.00144344 0.0 
0.99983 6.01555e-05 0.0 
1.00118 0.000554342 0.0 
0 0 0.0 
1.00322 -0.00269382 0.0 
1.01195 -0.00906013 0.0 
0.999369 -0.000934744 0.0 
0 0 0.0 
0.992931 -0.00754897 0.0 
0 0 0.0 
0.999747 -0.000609823 0.0 
1.00159 -0.00133684 0.0 
0.998166 -0.0138 0.0 
0.991822 0.00952658 0.0 
0.997117 -0.00212547 0.0 
0.994248 -0.00446489 0.0 
1.00629 -0.00258217 0.0 
1.00084 0.000774007 0.0 
0.999069 -0.00253726 0.0 
0.990431 -0.0127913 0.0 
0.999614 0.000325603 0.0 
1.02722 0.0050131 0.0 
0 0 0.0 
1.00018 0.000416167 0.0 
1.02171 0.0154704 0.0 
0.99999 0.00200726 0.0 
0.998419 0.0130823 0.0 
1.0009 -0.00230988 0.0 
0.0127692 -0.00188355 0.0 
1.00465 -0.00237101 0.0 
1.00715 -0.0103758 0.0 
1.00097 0.00164016 0.0 
0.995811 -0.000670111 0.0 
4.33727e-08 8.23501e-10 0.0 
1.00048 0.000586696 0.0 
0.992809 -0.00556989 0.0 
0 0 0.0 
1.0011 -0.0031099 0.0 
1.00275 0.00618546 0.0 
2.59949e-07 -9.14906e-09 0.0 
1.00129 -0.0040233 0.0 
1.00042 -0.00434779 0.0 
0.997207 -0.00050063 0.0 
0.0181583 0.000487122 0.0 
1.00762 0.00131349 0.0 
1.0016 0.000250551 0.0 
1.00252 0.00324134 0.0 
1.01408 0.00110476 0.0 
1.00054 0.000266347 0.0 
1.00035 -0.00128384 0.0 
1.00112 0.000322403 0.0 
1.0002 0.00393163 0.0 
1.00356 -0.00399847 0.0 
0.108317 0.0203668 0.0 
1.00171 -0.00169603 0.0 
0.283901 0.0217812 0.0 
1.00189 -0.00151485 0.0 
1.00014 0.00116077 0.0 
1.00015 0.00272084 0.0 
1.00164 -0.000421306 0.0 
1.00414 0.00242957 0.0 
1.00004 0.00187315 0.0 
0.997642 0.00374876 0.0 
1.00172 0.000117405 0.0 
1.0244 -0.00865715 0.0 
1.00068 -0.00173875 0.0 
1.00018 0.000666174 0.0 
0 0 0.0 
0.995149 -0.00258342 0.0 
0.997897 -0.0100517 0.0 
0.999849 0.000553237 0.0 
1.00521 0.0215994 0.0 
0.999304 -0.0106265 0.0 
0.999017 -1.44798e-06 0.0 
1.00241 0.00043429 0.0 
1.00233 0.0106472 0.0 
1.00596 0.0106802 0.0 
8.86171e-09 1.71074e-10 0.0 
1.00275 0.00219457 0.0 
0.988158 -0.0103274 0.0 
1.00243 -0.00239843 0.0 
1.00384 -0.00133004 0.0 
0.995944 0.00357451 0.0 
0 0 0.0 
0.996921 -0.000619233 0.0 
0.999898 0.000477486 0.0 
0.999716 -0.00439911 0.0 
0 0 0.0 
0.999978 6.07586e-05 0.0 
1.00567 0.00847924 0.0 
1.00278 0.00018252 0.0 
0.999616 -0.00200881 0.0 
1.00165 -0.000942064 0.0 
1.00544 -0.00617654 0.0 
1.00324 0.0121902 0.0 
1.00016 -0.00322806 0.0 
1.00131 0.000923564 0.0 
0.998326 -0.00569477 0.0 
0.999546 5.53792e-05 0.0 
1.00137 -0.0013606 0.0 
1.00341 -0.00219101 0.0 
0.999974 0.00434264 0.0 
1.00186 -0.0121809 0.0 
0.999442 0.000135825 0.0 
1.00126 -0.00136267 0.0 
1.00489 -0.0035432 0.0 
1.00009 0.000339199 0.0 
0.0910919 -0.00564609 0.0 
1.03442 -0.0456228 0.0 
1.00171 0.000216253 0.0 
1.00031 0.00083274 0.0 
0.144787 -0.00825089 0.0 
0.996656 -0.00403102 0.0 
0.570632 -0.0555221 0.0 
1.00099 -0.00484927 0.0 
1.00005 -0.000149125 0.0 
0.997809 0.00316765 0.0 
1.00138 -0.00190974 0.0 
0.999815 -0.00685263 0.0 
0.00948706 0.000374181 0.0 
1.00049 -0.000358474 0.0 
1.00052 -0.00212356 0.0 
1.00256 0.00100155 0.0 
0.99963 0.00122281 0.0 
1.00056 -0.0103564 0.0 
0.99437 -0.00263446 0.0 
1.00027 0.00125286 0.0 
0.987035 -0.0056043 0.0 
0.999011 -0.0174914 0.0 
1.00241 0.00177197 0.0 
0.996571 0.000203225 0.0 
1.00109 0.000510596 0.0 
6.39208e-09 4.97033e-10 0.0 
0.999553 2.90602e-05 0.0 
8.19825e-08 3.83177e-08 0.0 
0.998864 -0.00125859 0.0 
0.992074 0.00467265 0.0 
1.00338 0.00122454 0.0 
1.00771 0.00177586 0.0 
1.00162 -0.00189684 0.0 
1.00135 -0.0131165 0.0 
0 0 0.0 
0.999489 0.000213669 0.0 
0.994828 -0.00185708 0.0 
0.999768 0.00029009 0.0 
0.0897645 0.00133716 0.0 
0.0220188 0.00108618 0.0 
0 0 0.0 
1.00042 0.000408763 0.0 
0.998438 0.000293844 0.0 
0.999911 -0.000496577 0.0 
1.00066 -0.00155315 0.0 
1.00277 -0.00310034 0.0 
1.00182 -0.00360199 0.0 
0.997926 -5.93952e-05 0.0 
1.00065 -0.00125264 0.0 
0.998524 -0.000595423 0.0 
0.0540676 -0.00750002 0.0 
0.999666 0.000214053 0.0 
0.989571 0.00546928 0.0 
1.01298 0.00448912 0.0 
1.00133 0.00116931 0.0 
0.999022 -0.000111727 0.0 
0.995025 -0.00521711 0.0 
0.999158 -0.00597767 0.0 
0.998392 -0.00404337 0.0 
1.00031 0.000195909 0.0 
0.998505 0.000719161 0.0 
0.999354 -0.0105596 0.0 
1.00555 0.00342682 0.0 
1.00332 1.55449e-05 0.0 
1.00234 -0.00100181 0.0 
1.00014 -0.00122546 0.0 
0.986084 -0.0062253 0.0 
0.999326 -0.0112398 0.0 
1.00502 -0.00157804 0.0 
0.999629 -0.0112915 0.0 
1.00293 -0.00950761 0.0 
1.00229 0.00396615 0.0 
1.00483 0.0153135 0.0 
1.01722 -0.000312633 0.0 
0.998927 -0.00861799 0.0 
0.48617 0.186614 0.0 
1.0043 0.0039022 0.0 
1.00047 -0.00103285 0.0 
0.998683 -0.0111434 0.0 
1.00203 0.000135658 0.0 
1.00001 0.000485489 0.0 
0.987103 -0.00235598 0.0 
1.00188 -0.000334426 0.0 
1.00095 0.00192297 0.0 
1.00216 0.00254428 0.0 
1.00201 0.00166373 0.0 
2.69629e-08 -3.40931e-09 0.0 
0.993186 0.00368517 0.0 
0.998877 0.000432372 0.0 
1.00204 -0.0097004 0.0 
0.999803 -0.000414435 0.0 
1.00057 0.000145746 0.0 
1.00262 -0.00170438 0.0 
1.00057 0.00110883 0.0 
0.998973 -0.00528884 0.0 
0.998232 -0.00810244 0.0 
0.99846 -0.00161751 0.0 
0.999931 0.00109234 0.0 
0.998652 -0.00967629 0.0 
1.00523 0.000248803 0.0 
0.99761 -0.00165894 0.0 
0.997629 -0.00252699 0.0 
0.999309 0.0009512 0.0 
1.00038 0.00586658 0.0 
1.00217 0.00138729 0.0 
0 0 0.0 
1.00004 0.000866253 0.0 
0.998771 -0.00049032 0.0 
0.994444 -0.00726709 0.0 
5.02087e-09 -9.36845e-11 0.0 
1.00045 -0.000490087 0.0 
0.996799 -0.000906655 0.0 
0.998736 0.00141854 0.0 
1.00258 -0.00390105 0.0 
0.999368 -0.00764466 0.0 
1.00177 -0.000877535 0.0 
1.00017 0.000574295 0.0 
0 0 0.0 
1.00439 0.00159408 0.0 
1.00047 -0.00272331 0.0 
1.00209 -0.002406 0.0 
1.00126 0.00454528 0.0 
0.999232 0.00153129 0.0 
0.999923 0.000220871 0.0 
1.00117 -0.000410901 0.0 
1.00166 -0.00383124 0.0 
0.996885 -0.0126587 0.0 
1.0069 -0.0345354 0.0 
0.999398 0.000819144 0.0 
1.00271 -0.00433415 0.0 
1.00252 -0.000132591 0.0 
1.00149 -0.000101501 0.0 
0.964633 -0.0105457 0.0 
0 0 0.0 
1.00148 0.000772366 0.0 
0.999217 0.00179783 0.0 
0.989189 0.00242515 0.0 
1.00288 0.000403666 0.0 
0.989884 -0.00480437 0.0 
1.00419 -0.001256 0.0 
0.999697 0.000109897 0.0 
1.00142 0.000125062 0.0 
0.999277 0.00376376 0.0 
1.00468 -0.00163426 0.0 
0.999364 -0.00040634 0.0 
1.00328 -0.00531251 0.0 
0.999269 -0.000239279 0.0 
1.00185 -0.00014709 0.0 
0.0139434 0.000818412 0.0 
1.01384 -0.00457326 0.0 
1.00798 -0.00579723 0.0 
1.01367 -0.00897703 0.0 
1.00175 1.73969e-05 0.0 
1.00296 -0.0105687 0.0 
1.00364 0.00372929 0.0 
0 0 0.0 
1.00187 -0.00186818 0.0 
0.733716 -0.139219 0.0 
1.04092 -0.0471894 0.0 
0.997427 0.00557189 0.0 
1.00002 -4.02733e-05 0.0 
0.998004 -0.0054938 0.0 
0.990357 3.37083e-05 0.0 
1.00075 0.00954605 0.0 
1.00242 -0.000757952 0.0 
0.327419 0.033354 0.0 
1.00144 0.00392126 0.0 
1.00292 -0.00114033 0.0 
1.00428 -0.0017663 0.0 
0.996289 -0.00461446 0.0 
0 0 0.0 
0.999317 -0.000352426 0.0 
1.00145 -0.000964126 0.0 
0.999297 0.00574966 0.0 
0.999886 -0.00259677 0.0 
1.00184 -0.000741114 0.0 
1.00018 -0.00167451 0.0 
1.00038 -0.00539575 0.0 
0.995191 -0.015231 0.0 
0.999999 0.000307545 0.0 
0.998708 0.00298637 0.0 
0.999052 0.000529437 0.0 
1.00129 -0.000727347 0.0 
1.00104 -0.00153928 0.0 
1.00151 0.00106519 0.0 
1.05203 -0.223766 0.0 
0.997526 -0.00706824 0.0 
0.998476 0.00553942 0.0 
1.00001 0.000332387 0.0 
1.00109 0.00270995 0.0 
1.00188 0.00280128 0.0 
1.00217 -0.00109035 0.0 
0.99927 -0.00072234 0.0 
1.00021 0.000764378 0.0 
1.00365 -0.0282674 0.0 
1.00491 0.00276051 0.0 
1.00096 -0.00129414 0.0 
0.999746 0.000239322 0.0 
0.9915 0.000296151 0.0 
1.00026 0.000435252 0.0 
1.0009 -0.000544045 0.0 
0.999624 0.0019669 0.0 
1.00209 -0.00101993 0.0 
0.99003 0.00316345 0.0 
1.00221 -0.000295749 0.0 
0.998074 -0.000492778 0.0 
1.00083 0.00035949 0.0 
1.00195 -0.00597223 0.0 
1.00113 -0.00185821 0.0 
1.00065 0.000523326 0.0 
1.00122 -0.00121462 0.0 
1.00051 -0.00131967 0.0 
0.999868 0.00158349 0.0 
1.00011 0.000396739 0.0 
1.00051 0.000510515 0.0 
1.00127 -0.000672263 0.0 
1.00141 -0.0014126 0.0 
0.998428 0.00161618 0.0 
1.00031 0.000389698 0.0 
1.00034 0.00079086 0.0 
0.999994 -0.000153711 0.0 
1.00141 -0.000807579 0.0 
0.999604 0.000614088 0.0 
0.999996 -2.85171e-05 0.0 
0.998639 -0.00109372 0.0 
1.00019 -0.000320824 0.0 
1.00004 -4.71525e-05 0.0 
1.00096 -0.00169401 0.0 
0.999464 4.08651e-05 0.0 
0 0 0.0 
0.998017 -0.00287525 0.0 
0.999304 0.00232726 0.0 
0.999625 -0.000434141 0.0 
0.998841 0.000297094 0.0 
1.0025 -0.00209941 0.0 
1.0001 -0.000105958 0.0 
1.00098 -0.00279598 0.0 
1.00252 7.83974e-05 0.0 
0 0 0.0 
1.00015 0.000588311 0.0 
1.04972 -0.0732952 0.0 
1.00105 -0.00175776 0.0 
1.00148 -0.0012348 0.0 
0.999275 0.000192116 0.0 
1.00001 0.000144441 0.0 
0.999469 -0.0135215 0.0 
0.998263 -0.00643678 0.0 
1.00074 -0.000608872 0.0 
0 0 0.0 
1.00229 -0.00121599 0.0 
0.99885 0.000694189 0.0 
1.00033 0.000291685 0.0 
0.999765 0.000529929 0.0 
0.9906 0.00623026 0.0 
1.00143 -0.000526094 0.0 
0.991447 0.00302901 0.0 
0.996985 0.0540839 0.0 
0.999603 0.00104833 0.0 
0.996354 0.000708473 0.0 
0.996736 -0.00554616 0.0 
1.00165 0.00495768 0.0 
1.00484 0.000641048 0.0 
1.00413 0.0021299 0.0 
0.998959 0.00171773 0.0 
0.999116 -0.000123851 0.0 
1.00095 -0.00233692 0.0 
1.00296 -0.000899637 0.0 
1.00233 -0.00428654 0.0 
1.00135 -0.000415375 0.0 
1.00059 -0.000113741 0.0 
0.999019 -0.000587651 0.0 
1.00067 0.000756576 0.0 
1.00143 0.0320996 0.0 
1.0014 0.000551609 0.0 
-2.3109e-09 1.12625e-11 0.0 
1.00046 0.00174497 0.0 
0.997495 -0.00206916 0.0 
1.00357 0.00557955 0.0 
1.00169 0.0038111 0.0 
1.00051 -0.00139177 0.0 
1.00034 -0.00152577 0.0 
1.0013 -0.00619927 0.0 
0.999794 -0.00355128 0.0 
1.0007 0.000842177 0.0 
0.999163 -0.000394439 0.0 
0.994979 0.00233382 0.0 
1.00042 -0.00544677 0.0 
0.999485 0.000227509 0.0 
0.992806 -0.00901062 0.0 
0.999358 0.00323621 0.0 
0.994261 0.000350357 0.0 
0.996858 0.00136307 0.0 
1.00252 -0.000782957 0.0 
1.00155 -0.00167613 0.0 
0.998921 -7.93685e-05 0.0 
0.997896 -0.00959434 0.0 
0.999978 0.00132908 0.0 
0.999427 0.000251335 0.0 
0.999435 0.00114495 0.0 
0.183572 -0.0170656 0.0 
1.00185 0.000957057 0.0 
1.00164 -8.69071e-05 0.0 
0.997371 0.00128621 0.0 
0.998715 0.000793163 0.0 
0.999067 5.4432e-06 0.0 
1.00042 0.000500236 0.0 
1.00008 -0.000356971 0.0 
0.994059 0.00142614 0.0 
0.999459 9.74707e-05 0.0 
0.0285374 -0.00376613 0.0 
1.00103 -0.000852141 0.0 