<VTKFile type="UnstructuredGrid" version="0.1" byte_order="LittleEndian">
  <UnstructuredGrid>
    <Piece NumberOfPoints="23679" NumberOfCells="47236">
      <Points>
        <DataArray type = "Float64" NumberOfComponents="3" format="ascii">
-5 -7 0.0 
15.5 -7 0.0 
15.5 7 0.0 
-5 7 0.0 
7.63511 2.91639 0.0 
1.87049 1.67084 0.0 
-0.605974 -0.287769 0.0 
2.37337 -3.10656 0.0 
0.929906 2.48659 0.0 
0.824948 -0.0289232 0.0 
0.579762 -2.6174 0.0 
2.75639 -0.320238 0.0 
0.600589 -0.0279367 0.0 
0.809974 0.0358912 0.0 
4.52511 -0.0925724 0.0 
0.692729 -0.023898 0.0 
2.14598 1.71184 0.0 
4.47114 -0.725108 0.0 
2.94972 0.812693 0.0 
-2.51884 -5.20772 0.0 
0.933054 -0.00978829 0.0 
-3.39004 -0.0550254 0.0 
0.209319 0.0741243 0.0 
-0.14562 -1.1416 0.0 
0.16355 -0.0415655 0.0 
4.37129 -0.146188 0.0 
0.125896 0.0617342 0.0 
2.89507 -0.00321849 0.0 
0.117818 -0.0547525 0.0 
0.74577 -0.0190427 0.0 
1.20907 -2.59566 0.0 
7.05945 1.36908 0.0 
1.18414 0.837326 0.0 
-0.664239 0.00933663 0.0 
0.988285 -0.635056 0.0 
0.79931 -0.0154644 0.0 
-0.169857 -0.752454 0.0 
-0.535193 0.781979 0.0 
4.50646 0.336854 0.0 
0.675201 -0.447934 0.0 
4.33956 3.92927 0.0 
7.20401 -0.547152 0.0 
5.06202 0.761268 0.0 
-1.83764 -0.830466 0.0 
2.97447 -2.59497 0.0 
1.77447 -4.2029 0.0 
0.203756 0.0741702 0.0 
2.3905 -0.208726 0.0 
-2.38226 0.0491773 0.0 
1.57579 -4.90006 0.0 
0.892623 0.876713 0.0 
0.619187 0.0692661 0.0 
1.81524 2.22933 0.0 
3.20393 -0.375619 0.0 
0.560088 -0.0307549 0.0 
-4.00064 -1.06423 0.0 
4.1637 1.41296 0.0 
2.03909 0.577378 0.0 
3.97155 -0.451817 0.0 
-1.0713 0.305678 0.0 
1.24518 -0.853569 0.0 
5.30713 0.379083 0.0 
0.993214 0.00283989 0.0 
0.513972 -3.72515 0.0 
4.25372 1.90694 0.0 
0.87556 0.025233 0.0 
0.401296 0.0780688 0.0 
0.44761 -0.0359067 0.0 
-3.06259 -0.640688 0.0 
0.58449 -3.29242 0.0 
4.47137 0.702541 0.0 
-0.523713 -0.272593 0.0 
-0.477755 -0.422453 0.0 
0.570246 -0.533547 0.0 
0.538433 -0.0310055 0.0 
5.2741 -1.01059 0.0 
2.21102 -1.39328 0.0 
1.30783 -0.274121 0.0 
4.18709 -1.48886 0.0 
-1.19726 -3.28581 0.0 
-0.0359698 -1.75399 0.0 
0.617039 -0.0263973 0.0 
5.83653 0.150199 0.0 
5.57946 0.224905 0.0 
0.377841 -0.038928 0.0 
1.38254 1.36675 0.0 
2.58372 -1.06479 0.0 
4.70454 -3.6075 0.0 
0.551438 0.113173 0.0 
0.532912 -0.0384617 0.0 
-0.392031 -0.729994 0.0 
4.38556 1.53498 0.0 
-1.34387 -2.96962 0.0 
4.73748 -0.295427 0.0 
5.13252 -2.84762 0.0 
5.34987 1.08334 0.0 
0.326684 0.0802051 0.0 
1.0681 0.191919 0.0 
0.292684 0.0800176 0.0 
-0.288073 -0.693253 0.0 
0.850052 0.029488 0.0 
7.72674 -2.22661 0.0 
5.73402 0.253504 0.0 
3.27298 3.73283 0.0 
2.31769 -0.889324 0.0 
3.24694 -2.57408 0.0 
-0.795775 -5.8192 0.0 
0.667923 -0.0361302 0.0 
0.835769 0.0314682 0.0 
4.69839 -1.50939 0.0 
4.91709 3.01814 0.0 
0.151849 -0.0409087 0.0 
3.55148 0.264681 0.0 
0.842117 -0.794382 0.0 
2.65591 1.43349 0.0 
0.932811 0.0144733 0.0 
-0.764917 -0.926758 0.0 
3.60734 -0.915315 0.0 
-0.605852 0.649115 0.0 
5.76621 -0.263827 0.0 
3.08877 -0.924843 0.0 
0.899825 -0.00795866 0.0 
6.80384 1.26814 0.0 
3.19847 -0.826277 0.0 
0.0166341 -0.0962489 0.0 
3.983 -1.51439 0.0 
5.81155 1.05052 0.0 
0.403773 -0.0376754 0.0 
4.06583 -0.737319 0.0 
3.85222 3.16404 0.0 
7.27994 -0.917065 0.0 
7.01199 -1.44503 0.0 
5.44634 0.7472 0.0 
5.43495 -0.0201864 0.0 
1.51213 -0.834065 0.0 
1.97076 0.806002 0.0 
0.634487 0.0595385 0.0 
-0.572414 -4.29099 0.0 
1.8826 -0.733417 0.0 
0.759381 -0.180619 0.0 
0.40132 0.0778474 0.0 
0.23454 -0.0430222 0.0 
-0.802406 2.95957 0.0 
0.691963 0.0549995 0.0 
5.47277 -0.740356 0.0 
14.1487 4.94071 0.0 
0.0736498 -1.30758 0.0 
-3.24273 0.882011 0.0 
1.37104 -0.876055 0.0 
-0.483647 -0.194829 0.0 
2.83565 1.06937 0.0 
5.52957 -1.21731 0.0 
0.947149 -0.00912481 0.0 
-0.408161 -0.611461 0.0 
-0.824132 1.91234 0.0 
-0.28194 0.734853 0.0 
-2.58987 -0.112571 0.0 
5.39673 0.0810302 0.0 
0.347037 -1.34491 0.0 
1.28521 2.08402 0.0 
0.220369 -0.0424097 0.0 
-0.490215 0.575937 0.0 
1.64934 -1.3049 0.0 
0.153085 0.0664047 0.0 
-0.251695 -2.55503 0.0 
0.826156 -0.0139773 0.0 
3.35673 0.186652 0.0 
4.62807 -2.39408 0.0 
-1.05781 -1.39579 0.0 
-2.54531 4.21509 0.0 
1.60336 1.51116 0.0 
0.713093 0.0498095 0.0 
0.643534 0.0642145 0.0 
-3.64101 4.81173 0.0 
-1.26922 -3.94313 0.0 
-0.342655 -1.12768 0.0 
3.30326 0.952175 0.0 
5.64264 0.331249 0.0 
1.34559 -0.214642 0.0 
1.60527 0.321358 0.0 
0.328683 -0.0401423 0.0 
3.81728 0.37784 0.0 
4.37562 0.758715 0.0 
5.5831 -1.82905 0.0 
-1.49688 0.101849 0.0 
-1.70027 -0.343758 0.0 
0.937041 0.0136815 0.0 
5.60623 1.42522 0.0 
-1.23169 -0.42816 0.0 
1.69627 2.52442 0.0 
1.36245 -1.5082 0.0 
1.25107 -3.80948 0.0 
2.74679 0.528168 0.0 
5.36614 -1.19177 0.0 
0.605019 1.16677 0.0 
-4.58423 -1.62108 0.0 
-2.02651 2.34708 0.0 
3.99339 3.63024 0.0 
-1.36142 -0.0750085 0.0 
5.19766 -0.482867 0.0 
-3.85513 -1.43107 0.0 
0.966422 0.00919783 0.0 
0.247834 0.0870881 0.0 
-0.465649 -0.817954 0.0 
4.29025 4.26714 0.0 
1.18312 -0.431176 0.0 
9.21986 0.0258833 0.0 
5.39136 -0.625475 0.0 
5.56604 0.611257 0.0 
1.96388 -1.61685 0.0 
0.196106 -0.0423443 0.0 
2.93186 0.364486 0.0 
5.88518 0.822328 0.0 
0.824138 -0.0139123 0.0 
-0.47228 -0.526413 0.0 
0.477118 -0.0338206 0.0 
-4.64673 -2.62107 0.0 
4.10712 -0.887195 0.0 
0.710355 0.0501717 0.0 
1.64936 -0.864917 0.0 
-1.61346 -3.22424 0.0 
0.0092848 0.0284272 0.0 
7.26993 2.53793 0.0 
1.1048 2.83071 0.0 
10.1588 1.30502 0.0 
-0.263385 -0.26391 0.0 
13.7005 7 0.0 
0.52333 0.0703707 0.0 
4.58595 -1.29531 0.0 
5.62067 -0.188463 0.0 
0.799738 -0.0147854 0.0 
11.9625 -2.20661 0.0 
5.40435 0.619553 0.0 
3.28687 -1.45096 0.0 
0.458966 0.0872446 0.0 
5.51568 -0.596029 0.0 
-1.63011 3.37507 0.0 
0.293181 -0.0414659 0.0 
0.865321 -2.71027 0.0 
0.786038 -0.0158333 0.0 
0.0736186 0.0492692 0.0 
4.13993 -2.76136 0.0 
0.881421 -0.0921271 0.0 
0.266317 -3.38104 0.0 
4.88629 -0.852705 0.0 
0.437008 0.076424 0.0 
3.8816 4.12562 0.0 
7.92184 -0.0908268 0.0 
0.176354 -0.0480078 0.0 
-0.662142 0.143724 0.0 
6.26015 0.128606 0.0 
0.915518 -0.00670685 0.0 
3.62021 -1.04763 0.0 
1.34876 0.720027 0.0 
0.982357 -3.49725 0.0 
0.663709 0.0566737 0.0 
5.3066 -0.705713 0.0 
-0.944514 -3.61431 0.0 
1.79294 -0.661223 0.0 
-0.342215 2.27409 0.0 
5.88842 -0.367403 0.0 
0.211839 -0.0420107 0.0 
0.654413 -0.0369233 0.0 
3.68564 6.54289 0.0 
5.00064 1.8515 0.0 
0.69027 0.0546811 0.0 
1.12166 0.441142 0.0 
7.31715 -3.60167 0.0 
2.79958 1.64327 0.0 
0.433465 0.0764782 0.0 
0.584196 0.0652607 0.0 
0.0636322 -0.695974 0.0 
-1.81416 1.63551 0.0 
0.74075 0.0465749 0.0 
2.69342 -1.49048 0.0 
4.86008 -1.00044 0.0 
0.822907 -0.0142337 0.0 
-0.164664 0.307939 0.0 
4.48127 5.51069 0.0 
4.4895 -4.79993 0.0 
5.37438 1.55243 0.0 
0.123991 1.28664 0.0 
6.41782 -0.499678 0.0 
3.16721 -0.70129 0.0 
1.99155 -0.729552 0.0 
4.69954 4.16905 0.0 
-1.91695 -2.36563 0.0 
8.09216 1.16816 0.0 
0.242046 0.0802658 0.0 
2.34355 2.47663 0.0 
2.72841 -0.285972 0.0 
13.5916 6.05949 0.0 
1.64671 4.40597 0.0 
3.03209 1.84093 0.0 
-0.498111 0.662759 0.0 
0.765551 -2.10462 0.0 
5.25655 0.61914 0.0 
6.04759 -2.75505 0.0 
1.12471 -0.237361 0.0 
6.40695 -2.14103 0.0 
4.37139 0.883681 0.0 
0.240004 -0.042139 0.0 
-4.55867 -4.42627 0.0 
-1.09286 3.96435 0.0 
-1.07351 0.572111 0.0 
3.73338 -0.828021 0.0 
-0.766762 -0.403459 0.0 
0.402752 -1.68281 0.0 
0.925255 0.0164317 0.0 
0.88786 -0.943606 0.0 
0.505244 -0.025873 0.0 
-0.299243 0.0389379 0.0 
3.36416 0.723434 0.0 
0.636773 1.7916 0.0 
0.0435288 1.09333 0.0 
0.74756 2.65039 0.0 
5.12608 -1.02106 0.0 
3.05399 0.794214 0.0 
3.3685 -2.29577 0.0 
9.40833 4.18552 0.0 
0.726496 1.10014 0.0 
-1.43587 -0.265452 0.0 
1.53809 -0.965095 0.0 
3.65342 -1.2467 0.0 
3.58193 2.86195 0.0 
1.58453 1.05649 0.0 
0.69113 -0.0216886 0.0 
4.67304 -0.737386 0.0 
2.403 -2.53676 0.0 
-0.883615 -1.03632 0.0 
0.570985 0.067201 0.0 
4.5489 1.01634 0.0 
1.30188 0.95494 0.0 
4.78484 -2.98767 0.0 
0.647276 3.74647 0.0 
1.64058 -1.98991 0.0 
5.60464 1.66025 0.0 
-2.46641 -2.76999 0.0 
0.0236771 0.0292808 0.0 
1.83737 -2.85625 0.0 
0.712397 -0.0207427 0.0 
-0.929233 -3.15638 0.0 
5.62429 -0.0217768 0.0 
0.696715 -0.0236006 0.0 
4.31467 0.462465 0.0 
1.90518 -1.00498 0.0 
3.8123 -0.317197 0.0 
-1.40698 0.43063 0.0 
8.12686 0.163945 0.0 
0.0912505 -0.0517404 0.0 
0.360402 0.0788181 0.0 
0.766222 5.08386 0.0 
0.543306 0.227627 0.0 
0.768677 -0.887089 0.0 
13.8069 6.49329 0.0 
3.14545 -0.527242 0.0 
3.00213 0.685174 0.0 
-3.26851 -1.17579 0.0 
0.326091 -0.0407782 0.0 
-0.350969 -1.28117 0.0 
-1.34372 -4.38367 0.0 
-1.47047 0.274883 0.0 
8.69891 -0.824176 0.0 
0.572752 0.0666296 0.0 
3.02391 1.56815 0.0 
0.546825 -0.0304958 0.0 
7.53034 -2.92118 0.0 
0.862614 -3.9233 0.0 
7.46433 -0.686568 0.0 
0.435695 0.0763326 0.0 
-0.291216 -0.600905 0.0 
0.958024 -0.00418663 0.0 
0.996359 0.00209859 0.0 
-3.04054 -1.35802 0.0 
7.86523 -1.29492 0.0 
0.824153 0.0339519 0.0 
-2.0843 -1.39076 0.0 
2.0242 4.23744 0.0 
6.10554 -1.09258 0.0 
0.070474 0.0518922 0.0 
0.253412 0.0852338 0.0 
4.90662 -3.37133 0.0 
5.3389 -1.37998 0.0 
8.18441 -5.4394 0.0 
4.74018 -1.11041 0.0 
-1.45792 -1.69797 0.0 
-0.658439 1.28669 0.0 
-1.47154 1.02941 0.0 
0.548603 -1.30682 0.0 
-4.28372 4.01846 0.0 
0.597388 -0.031556 0.0 
0.976283 3.91053 0.0 
-1.97604 3.44687 0.0 
-0.823498 -1.2495 0.0 
-0.676338 -0.322971 0.0 
0.0194499 -2.00073 0.0 
6.06625 2.2173 0.0 
4.77636 1.32682 0.0 
3.5286 -1.40716 0.0 
2.2348 6.10147 0.0 
4.3501 1.14584 0.0 
-0.374853 0.997283 0.0 
0.331239 -0.0398749 0.0 
2.92416 0.944765 0.0 
-1.08711 -0.79613 0.0 
-2.10643 0.811211 0.0 
10.0853 -2.20029 0.0 
9.19723 -1.4685 0.0 
-3.63493 -2.23583 0.0 
9.13289 -4.40814 0.0 
0.13646 -0.0401233 0.0 
3.73879 -1.49966 0.0 
1.16246 1.31001 0.0 
1.76621 -0.985528 0.0 
0.279409 0.0783782 0.0 
4.49882 0.813878 0.0 
0.0773295 0.0501322 0.0 
-1.7711 -2.7915 0.0 
2.21785 -2.83793 0.0 
1.9729 0.35934 0.0 
6.07917 0.172121 0.0 
-1.06801 -1.19434 0.0 
-0.742511 -0.787541 0.0 
4.55801 -0.996424 0.0 
10.0032 -3.21238 0.0 
4.23955 3.27 0.0 
4.4588 0.213546 0.0 
-3.41169 -1.50587 0.0 
0.374392 0.944982 0.0 
[...]
<PointData>
  <DataArray type = "Float64" Name="VitesseP1" NumberOfComponents="3" format="ascii">
1 0 0.0 
1.00114 0 0.0 
0.998937 0 0.0 
1 0 0.0 
0.997982 -0.00205076 0.0 
1.0062 -0.00610126 0.0 
0.983554 -0.00252668 0.0 
1.00116 -0.000838217 0.0 
1.00678 -0.00103842 0.0 
0.624639 0.0384468 0.0 
1.00102 -0.00114449 0.0 
0.999863 -0.00359899 0.0 
0.0115155 0.000356662 0.0 
0 0 0.0 
0.943462 -0.00201984 0.0 
0.0875557 0.00545761 0.0 
1.00493 -0.00563603 0.0 
1.00193 -0.00255889 0.0 
1.00151 -0.0056462 0.0 
1.00009 -0.0001774 0.0 
0.149064 0.0100288 0.0 
0.999511 0.00132966 0.0 
0.0777132 0.00947506 0.0 
1.00084 -0.00590828 0.0 
1.25581e-08 -4.79312e-10 0.0 
0.997995 -0.00286158 0.0 
3.13067e-08 6.97054e-09 0.0 
0.845345 -0.00406003 0.0 
1.13949 -0.112922 0.0 
0.0182041 0.00170221 0.0 
1.00112 -0.000893423 0.0 
0.998474 -0.0044208 0.0 
1.01453 -0.0171389 0.0 
0.982489 0.00831858 0.0 
1.00269 0.00825274 0.0 
0.0132048 0.000624408 0.0 
0.999284 -0.0119388 0.0 
1.00315 0.0186871 0.0 
1.00101 -0.00370378 0.0 
1.01663 0.0122137 0.0 
1.00062 -0.00142003 0.0 
1.00433 -0.00226205 0.0 
1.00106 -0.00382103 0.0 
0.997261 0.000724912 0.0 
1.00128 -0.00111632 0.0 
1.001 -0.000604985 0.0 
0.174205 0.0175568 0.0 
0.998449 -0.00418818 0.0 
0.998383 0.00267441 0.0 
1.00091 -0.000452646 0.0 
1.02349 -0.0133437 0.0 
0.411603 -0.040544 0.0 
1.00538 -0.00371306 0.0 
1.00095 -0.00324264 0.0 
0.0308768 0.00188227 0.0 
0.999822 0.000425427 0.0 
1.00117 -0.00349592 0.0 
1.00096 -0.0107458 0.0 
1.00177 -0.00284534 0.0 
0.993599 0.00922477 0.0 
1.00035 0.00334028 0.0 
1.00078 -0.00366999 0.0 
-3.04214e-09 -6.39101e-10 0.0 
1.00075 -0.000777544 0.0 
1.00126 -0.00308968 0.0 
-0.000842205 0.000158395 0.0 
3.21867e-08 -4.25313e-10 0.0 
0 0 0.0 
0.999186 0.00108509 0.0 
1.00082 -0.00089582 0.0 
1.00118 -0.00370783 0.0 
0.980875 -0.00447803 0.0 
0.986128 -0.00875911 0.0 
1.01727 0.00498427 0.0 
0 0 0.0 
1.00226 -0.0024449 0.0 
1.00013 -0.00101084 0.0 
0.987563 0.00634484 0.0 
1.00171 -0.00210824 0.0 
1.00007 -0.000741666 0.0 
1.001 -0.00269178 0.0 
0 0 0.0 
0.989232 -0.00381317 0.0 
1.0128 -0.00276064 0.0 
3.42066e-08 1.56809e-09 0.0 
1.00985 -0.00810832 0.0 
1.00005 -0.00184171 0.0 
1.00189 -0.00117958 0.0 
1.13222 -0.0689872 0.0 
0.388299 0.0202768 0.0 
0.994794 -0.00945364 0.0 
1.00113 -0.00336126 0.0 
0.99987 -0.000793031 0.0 
1.00209 -0.00270406 0.0 
1.00217 -0.00149271 0.0 
1.00062 -0.00384686 0.0 
0.116101 0.000464773 0.0 
0.996763 -0.0612384 0.0 
0.148818 0.00371106 0.0 
0.99555 -0.0118717 0.0 
-1.04771e-09 1.76674e-11 0.0 
1.00394 -0.00111249 0.0 
1.00657 -0.0054488 0.0 
1.0015 -0.00160986 0.0 
0.999344 -0.0017583 0.0 
1.00137 -0.00124129 0.0 
1.00036 -0.000209658 0.0 
0.595515 0.0344979 0.0 
0 0 0.0 
1.00199 -0.0021453 0.0 
1.00046 -0.0021623 0.0 
0 0 0.0 
1.00072 -0.00426854 0.0 
1.00559 0.00447397 0.0 
1.00289 -0.0055983 0.0 
0 0 0.0 
0.995363 -0.00383191 0.0 
1.00133 -0.00245904 0.0 
0.999111 0.0191287 0.0 
1.00386 -0.00466004 0.0 
1.00073 -0.00236259 0.0 
0 0 0.0 
0.999345 -0.00478671 0.0 
1.00083 -0.0025243 0.0 
0.99439 -0.170069 0.0 
1.00159 -0.00205349 0.0 
0.999931 -0.00442501 0.0 
0 0 0.0 
1.00167 -0.0025999 0.0 
1.00133 -0.00202712 0.0 
1.00574 -0.00313922 0.0 
1.00357 -0.00244382 0.0 
1.0007 -0.00418796 0.0 
0.909573 -0.00278828 0.0 
0.998533 0.00168241 0.0 
1.00308 -0.0106898 0.0 
0 0 0.0 
1.00039 -0.000560796 0.0 
0.997721 -0.000697569 0.0 
1.01641 0.0358215 0.0 
0 0 0.0 
0.0478016 0.000485823 0.0 
1.00354 0.00261476 0.0 
0.0612298 -0.00758337 0.0 
1.00252 -0.00279817 0.0 
0.998767 0.000350395 0.0 
1.00222 -0.00429885 0.0 
0.999775 0.00197486 0.0 
0.999472 0.00242343 0.0 
0.976347 -0.00294483 0.0 
1.00212 -0.00577347 0.0 
1.00258 -0.00217354 0.0 
0.160704 0.0106517 0.0 
0.991873 -0.0104181 0.0 
1.00487 0.00586364 0.0 
1.00895 0.0247931 0.0 
0.998652 0.00215317 0.0 
0.96731 -0.00841021 0.0 
1.00311 -0.00267377 0.0 
1.00767 -0.00315316 0.0 
7.97822e-09 -1.7995e-10 0.0 
0.998726 0.0236727 0.0 
1.00014 6.68483e-05 0.0 
0 0 0.0 
1.00045 -0.00143999 0.0 
0.0252113 0.00192035 0.0 
0.999909 -0.00449175 0.0 
1.00194 -0.00171207 0.0 
0.997802 -0.0019493 0.0 
1.00071 0.00107007 0.0 
1.00764 -0.00705086 0.0 
0 0 0.0 
0.251764 -0.0272371 0.0 
1.00019 0.000480731 0.0 
1.00018 -0.00054104 0.0 
0.99912 -0.00586006 0.0 
1.00161 -0.00474446 0.0 
0.998981 -0.00242739 0.0 
0.985376 0.00392951 0.0 
0.996664 -0.0179179 0.0 
0 0 0.0 
1.00088 -0.00401979 0.0 
1.0012 -0.00371399 0.0 
1.0024 -0.00188973 0.0 
0.995608 0.00502477 0.0 
0.996211 0.00234543 0.0 
0 0 0.0 
1.00011 -0.00370403 0.0 
0.993707 0.0013969 0.0 
1.00519 -0.00278553 0.0 
1.00112 -1.16934e-05 0.0 
1.00093 -0.000706121 0.0 
1.00075 -0.0063221 0.0 
1.00242 -0.00251105 0.0 
1.02132 -0.00160034 0.0 
0.999981 0.000102216 0.0 
1.00143 0.00328154 0.0 
1.00097 -0.0016313 0.0 
0.994184 0.00417727 0.0 
1.00238 -0.00234389 0.0 
0.999791 0.000327137 0.0 
-0.0126001 0.00255593 0.0 
1.09447 0.0825202 0.0 
0.995545 -0.00756802 0.0 
1.00057 -0.00119992 0.0 
0.994889 0.0099734 0.0 
0.993225 0.00117402 0.0 
1.00325 -0.00325851 0.0 
1.0016 -0.00412335 0.0 
1.00058 -0.000696345 0.0 
2.00358e-08 -9.77202e-10 0.0 
1.00038 -0.00558364 0.0 
1.00127 -0.00403979 0.0 
0.0169125 0.00110836 0.0 
0.989215 -0.00912116 0.0 
0 0 0.0 
0.999996 1.57165e-05 0.0 
1.00173 -0.00248656 0.0 
0 0 0.0 
0.998523 0.000723608 0.0 
0.999936 -0.000625679 0.0 
0.690244 0.504395 0.0 
0.998174 -0.00261282 0.0 
1.00541 -0.00111969 0.0 
0.99494 0.00200419 0.0 
0.973206 -0.021657 0.0 
0.998681 0 0.0 
0 0 0.0 
1.00192 -0.00224404 0.0 
0.991789 -0.00100809 0.0 
0 0 0.0 
1.00184 0.001949 0.0 
1.00079 -0.00386577 0.0 
1.00107 -0.00187109 0.0 
0.858432 -0.038769 0.0 
1.00193 -0.00194622 0.0 
1.00181 0.00201205 0.0 
1.78975e-08 8.20596e-10 0.0 
1.00106 -0.000996216 0.0 
0 0 0.0 
6.98006e-08 2.11071e-08 0.0 
1.00173 -0.00147317 0.0 
1.00079 0.0467037 0.0 
1.0007 -0.00090276 0.0 
1.00217 -0.00246602 0.0 
0 0 0.0 
1.00087 -0.00128269 0.0 
0.986701 -0.00785788 0.0 
0.696147 -0.0260681 0.0 
0.984414 0.0131089 0.0 
0.980936 -0.00469191 0.0 
0 0 0.0 
1.00129 -0.00233503 0.0 
1.00946 -0.0190681 0.0 
1.0009 -0.000797063 0.0 
0.00473153 -0.00057181 0.0 
1.00192 -0.00230967 0.0 
1.00023 -0.000712395 0.0 
0.996925 -0.000376977 0.0 
1.00628 0.00377286 0.0 
1.01083 -0.00649548 0.0 
0 0 0.0 
0.599891 0.0344113 0.0 
1.00038 -0.000151981 0.0 
1.00069 -0.00313735 0.0 
0.0424538 -0.00520358 0.0 
1.01186 -0.0354668 0.0 
1.00291 -0.000673293 0.0 
1.00299 -0.00485327 0.0 
0 0 0.0 
8.06854e-09 -5.29347e-10 0.0 
1.00585 -0.0134642 0.0 
1.00129 0.00474813 0.0 
0.00306702 -0.000411427 0.0 
1.00063 -0.00147136 0.0 
1.00214 -0.002431 0.0 
0.0267905 0.00160048 0.0 
0.989815 0.0599647 0.0 
1.0002 -0.000568418 0.0 
1.00169 -0.000738098 0.0 
1.00047 -0.00349788 0.0 
1.01594 0.00754287 0.0 
1.01061 -0.00602707 0.0 
1.00065 -0.00271271 0.0 
0.997933 -0.00119776 0.0 
1.00033 -0.00129417 0.0 
0.99944 -0.000521512 0.0 
0.995731 -0.00444474 0.0 
0.553718 0.0405301 0.0 
1.00368 -0.00332291 0.0 
0.999563 -0.0037037 0.0 
0.998642 0.000152542 0.0 
1.00216 -0.000679905 0.0 
1.0027 -0.00415779 0.0 
1.00073 0.0216389 0.0 
1.00139 -0.00113734 0.0 
1.00057 -0.00420289 0.0 
1.00263 -0.00140729 0.0 
0.986344 0.0172817 0.0 
1.00295 -0.00165987 0.0 
1.0012 -0.0036898 0.0 
0 0 0.0 
1 -2.85613e-05 0.0 
1.00197 0.00134415 0.0 
0.996784 0.0106491 0.0 
1.00144 -0.00254569 0.0 
0.989073 -0.00158948 0.0 
1.00206 -0.00196427 0.0 
-2.70009e-08 4.28053e-09 0.0 
1.00423 0.00260463 0.0 
0 0 0.0 
0.952673 0.0175177 0.0 
1.0013 -0.00468653 0.0 
1.01172 -0.000333118 0.0 
1.01826 0.0122321 0.0 
1.00631 -0.000308173 0.0 
1.00209 -0.00235712 0.0 
1.00143 -0.00537083 0.0 
1.00134 -0.00139206 0.0 
0.997829 -0.000372024 0.0 
1.02152 -0.00503323 0.0 
0.994911 0.00273899 0.0 
0.999231 0.00114045 0.0 
1.00131 -0.0021666 0.0 
1.00169 -0.00239839 0.0 
1.00782 -0.011394 0.0 
0 0 0.0 
1.00202 -0.00252858 0.0 
1.0011 -0.000938011 0.0 
0.996289 -0.00297197 0.0 
0.0281887 -0.00219712 0.0 
1.00109 -0.00361249 0.0 
1.0121 -0.0141354 0.0 
1.00198 -0.00143096 0.0 
1.00334 4.58744e-05 0.0 
1.00096 -0.000648736 0.0 
1.00027 -0.00342559 0.0 
0.999711 -0.000280574 0.0 
5.76026e-08 2.9105e-08 0.0 
1.00111 -0.000826006 0.0 
2.50286e-08 1.89512e-09 0.0 
1.00013 -0.000886357 0.0 
0.922288 -0.00170749 0.0 
0.0848444 0.00558246 0.0 
1.00107 -0.00374306 0.0 
0.999098 -0.000468236 0.0 
1.00166 -0.00301752 0.0 
0.996541 0.0070206 0.0 
0.986472 -0.0102626 0.0 
1.14152 -0.155174 0.0 
1.22578e-08 5.54318e-10 0.0 
1.00171 -4.92448e-05 0.0 
1.1074 -0.0389131 0.0 
1.00606 0.00242438 0.0 
0.998685 8.08448e-05 0.0 
1.00062 -0.00299982 0.0 
1.00128 -0.00552476 0.0 
0.999463 0.000580681 0.0 
0.0124808 0.000616068 0.0 
0.999343 -0.00464736 0.0 
1.00022 -0.000436206 0.0 
0.996154 0.00596075 0.0 
1.01084 -0.00135515 0.0 
0.00857282 -0.000987448 0.0 
1.00246 -0.00462769 0.0 
0 0 0.0 
1.00332 -0.000819463 0.0 
1.00083 -0.000698295 0.0 
1.00631 -0.00426269 0.0 
0 0 0.0 
0.993584 -0.0138394 0.0 
0 0 0.0 
0 0 0.0 
0.999332 0.000477816 0.0 
1.00453 -0.00217731 0.0 
0.0005833 -0.000102665 0.0 
0.998488 6.66303e-05 0.0 
1.0021 -0.000986892 0.0 
1.00259 -0.00244117 0.0 
0.797394 0.251765 0.0 
0.959785 0.0669707 0.0 
1.00199 -0.00127238 0.0 
1.00232 -0.00224008 0.0 
1.00253 -9.2116e-05 0.0 
1.00202 -0.00231416 0.0 
0.998573 -0.00102622 0.0 
1.00545 0.0106234 0.0 
0.999907 0.00709098 0.0 
1.00351 -0.00153225 0.0 
1.00004 0.000393006 0.0 
0.187721 0.0108447 0.0 
1.00302 -0.000320977 0.0 
1.00141 0.00187225 0.0 
0.997411 -0.00294834 0.0 
0.986146 -0.00184292 0.0 
1.00087 -0.00207715 0.0 
0.999495 -0.00306901 0.0 
1.0008 -0.00348959 0.0 
1.00125 -0.00199793 0.0 
1.00095 -0.000249698 0.0 
1.00108 -0.00359229 0.0 
1.00872 0.0163206 0.0 
0 0 0.0 
1.00183 -0.00563738 0.0 
0.994774 -0.00126966 0.0 
0.999192 0.00441493 0.0 
1.00366 0.00164502 0.0 
1.00491 0.00092301 0.0 
0.999824 7.98756e-05 0.0 
1.0028 0.000169528 0.0 
0 0 0.0 
1.00143 -0.0020033 0.0 
1.01263 -0.00792082 0.0 
0.999002 3.66311e-05 0.0 
0 0 0.0 
1.00118 -0.00368945 0.0 
0 0 0.0 
0.999706 -0.000607457 0.0 
1.00115 -0.000851204 0.0 
0.998584 -0.0113003 0.0 
0.986158 -0.00934049 0.0 
0.996978 -0.00197787 0.0 
0.994043 -0.00415676 0.0 
1.00198 -0.00240388 0.0 
1.0031 0.000847932 0.0 
1.00096 -0.00190778 0.0 
1.00063 -0.00368487 0.0 
0.999604 0.000358777 0.0 
1.02775 0.00557891 0.0 
0 0 0.0 
1.00074 0.00162714 0.0 
1.02217 0.015906 0.0 
1.00304 -0.00329385 0.0 
0.99854 0.0133446 0.0 
1.00029 -0.001276 0.0 
0.0114601 -0.00167232 0.0 
1.00175 -0.00221567 0.0 
1.00801 -0.00876606 0.0 
1.00099 0.00167647 0.0 
0.995695 -0.000517879 0.0 
4.31516e-08 8.26585e-10 0.0 
1.00212 0.00154653 0.0 
1.00103 -0.00363749 0.0 
0 0 0.0 
1.00031 -0.00185981 0.0 
1.00283 0.00629155 0.0 
2.61536e-07 -9.20222e-09 0.0 
1.00044 -0.00245025 0.0 
1.00222 -0.00283162 0.0 
0.999396 -0.00271541 0.0 
0.0183126 0.000491497 0.0 
1.0079 0.0014934 0.0 
1.00241 -0.000230889 0.0 
1.00258 0.00330195 0.0 
1.01453 0.00156553 0.0 
1.00166 0.000679105 0.0 
1.00029 -0.00106528 0.0 
1.00251 0.000157505 0.0 
1.00023 0.0040276 0.0 
1.00146 -0.00241003 0.0 
0.108176 0.0203409 0.0 
1.00107 -0.00108012 0.0 
0.283357 0.0217423 0.0 
1.00169 -0.000877153 0.0 
1.00014 0.0011863 0.0 
1.00016 0.00278806 0.0 
1.00128 -0.000522489 0.0 
1.00293 -0.00179493 0.0 
1.00005 0.00192081 0.0 
0.997302 0.00457045 0.0 
1.00219 -0.000287632 0.0 
1.02499 -0.00782353 0.0 
1.00022 -0.000801646 0.0 
1.00136 0.0027207 0.0 
0 0 0.0 
1.00058 -0.00330634 0.0 
1.00123 -0.00450629 0.0 
0.999168 0.00236318 0.0 
1.0055 0.0219753 0.0 
1.00016 -0.00612701 0.0 
0.99868 -0.000407723 0.0 
1.00243 -0.00112287 0.0 
0.951701 -0.00172941 0.0 
0.964479 0.000705225 0.0 
8.79546e-09 1.78542e-10 0.0 
1.00282 0.00217206 0.0 
1.00109 -0.00372086 0.0 
1.00305 -0.00170051 0.0 
1.00418 -0.000907743 0.0 
0.995914 0.00374281 0.0 
0 0 0.0 
0.996819 -0.000505967 0.0 
0.999897 0.000496768 0.0 
1.00186 -0.00281532 0.0 
0 0 0.0 
0.999978 6.80196e-05 0.0 
0.999579 -0.00129154 0.0 
1.00225 -0.00136627 0.0 
0.99918 -0.000932472 0.0 
1.00121 -0.000735108 0.0 
1.00637 -0.00477498 0.0 
0.934169 0.000764731 0.0 
1 -0.00289728 0.0 
1.00334 -0.000101717 0.0 
1.00172 -0.00338698 0.0 
0.998754 0.000153097 0.0 
1.00109 -0.000840416 0.0 
1.00159 -0.0019295 0.0 
1.00001 0.00445407 0.0 
1.0027 -0.0044132 0.0 
0.998454 0.000243756 0.0 
1.00164 -0.000970486 0.0 
1.00174 -0.00240709 0.0 
1.00009 0.000345098 0.0 
0.0903386 -0.00559708 0.0 
1.03502 -0.0447071 0.0 
1.0023 -0.000353018 0.0 
0.999996 0.00165738 0.0 
0.143666 -0.00818039 0.0 
1.00102 -0.00302745 0.0 
0.566713 -0.0550244 0.0 
1.00265 -0.00323758 0.0 
1.00004 -0.000148049 0.0 
0.997795 0.00329639 0.0 
1.00079 -0.00109533 0.0 
1.00239 -0.00418624 0.0 
0.00958231 0.000377777 0.0 
1.0006 -0.000255477 0.0 
1.00042 -0.00176716 0.0 
1.00281 -0.00136698 0.0 
0.990598 0.00373269 0.0 
1.00195 -0.00704574 0.0 
1.00062 -0.00344495 0.0 
1.00693 0.00301435 0.0 
1.00105 -0.00385079 0.0 
0.999501 -0.0154819 0.0 
1.00246 0.00174681 0.0 
0.996484 0.00032521 0.0 
1.0008 0.00129358 0.0 
6.44469e-09 5.01971e-10 0.0 
0.998791 8.25165e-05 0.0 
8.19471e-08 3.83111e-08 0.0 
1.00009 -0.00140867 0.0 
0.99203 0.0049417 0.0 
1.00265 -0.00181741 0.0 
1.00259 -0.00206962 0.0 
1.00094 -0.00116927 0.0 
1.00214 -0.0106213 0.0 
0 0 0.0 
0.998456 0.000470578 0.0 
0.994433 -0.000818532 0.0 
0.999138 0.00110296 0.0 
0.0903494 0.00134587 0.0 
0.0222146 0.00109587 0.0 
0 0 0.0 
1.00154 0.00122831 0.0 
0.998077 -0.00172811 0.0 
0.999886 -0.000496962 0.0 
1.00124 -0.00108208 0.0 
1.00357 -0.00219365 0.0 
1.00074 -0.00217963 0.0 
0.99786 1.61558e-05 0.0 
1.00058 -0.000890911 0.0 
0.999365 -0.00151458 0.0 
0.0519005 -0.00718485 0.0 
0.998915 0.000726978 0.0 
1.00481 -0.00388778 0.0 
1.01336 0.00478384 0.0 
1.00365 -0.000324066 0.0 
0.99898 -6.42586e-05 0.0 
1.00096 -0.00341364 0.0 
1.00203 -0.00359589 0.0 
1.00126 -0.00269276 0.0 
1.00095 0.000740468 0.0 
0.997127 -0.00200562 0.0 
1.00049 -0.00607073 0.0 
1.00342 -0.00276443 0.0 
1.00218 -0.00162893 0.0 
1.00153 -0.00123997 0.0 
1.00071 -0.000863083 0.0 
0.985859 -0.00570226 0.0 
1.00002 -0.00775356 0.0 
1.00474 -0.000961307 0.0 
1.00041 -0.00786827 0.0 
1.00416 -0.00725232 0.0 
1.00235 0.00404952 0.0 
1.00504 0.0155691 0.0 
1.01773 0.000275557 0.0 
1.00172 -0.00473747 0.0 
0.486467 0.186738 0.0 
1.0044 0.00388489 0.0 
1.00043 -0.000797618 0.0 
0.99905 -0.00767889 0.0 
1.00215 -0.000734818 0.0 
1.00001 0.000494871 0.0 
1.00143 -0.00405267 0.0 
1.00154 -0.000737625 0.0 
1.00474 -0.00137925 0.0 
1.00221 0.00259597 0.0 
1.00348 -0.00142199 0.0 
2.61037e-08 -3.29716e-09 0.0 
0.998722 -0.00531085 0.0 
0.997501 -0.000835148 0.0 
1.00338 -0.00713204 0.0 
0.999777 -0.00040517 0.0 
1.00058 0.00014871 0.0 
1.00302 -0.00120417 0.0 
1.00455 0.00191481 0.0 
1.0018 -0.00324828 0.0 
1.00159 -0.00432183 0.0 
0.99835 -0.00153094 0.0 
0.999933 0.0011215 0.0 
1.00139 -0.00490531 0.0 
1.00493 0.000888135 0.0 
1.00014 -0.00235868 0.0 
1.00056 -0.00245544 0.0 
0.995198 0.000707516 0.0 
1.00043 0.00600092 0.0 
1.0032 -0.00135351 0.0 
0 0 0.0 
1.00183 0.00484324 0.0 
0.999345 -0.00119854 0.0 
1.00117 -0.00364944 0.0 
4.96785e-09 -8.82801e-11 0.0 
1.00043 -0.00036213 0.0 
0.999705 -0.00284016 0.0 
0.994786 -0.00318972 0.0 
1.00112 -0.00234659 0.0 
0.99909 -0.00720651 0.0 
1.00128 -0.00078933 0.0 
1.00018 0.000584502 0.0 
0 0 0.0 
1.00266 -0.00224594 0.0 
1.00033 -0.00235161 0.0 
1.00108 -0.00158435 0.0 
1.00584 -0.00415268 0.0 
0.991994 -0.00341508 0.0 
0.999922 0.000234989 0.0 
1.0009 -0.000296317 0.0 
1.00146 -0.00333584 0.0 
1.00078 -0.00397987 0.0 
1.00744 -0.0332776 0.0 
0.996138 0.00130048 0.0 
1.00119 -0.00251526 0.0 
1.00259 -8.75167e-05 0.0 
1.00119 -0.000128444 0.0 
0.927376 -0.0055906 0.0 
0 0 0.0 
1.0015 0.000734946 0.0 
0.999213 0.00186772 0.0 
0.989099 0.00277129 0.0 
1.00294 0.000340854 0.0 
1.00102 -0.00381476 0.0 
1.00191 -0.00199595 0.0 
0.999687 0.000137542 0.0 
1.00242 -5.43947e-05 0.0 
0.999291 0.00386961 0.0 
1.00189 -0.00212511 0.0 
0.999755 -0.000521756 0.0 
1.00439 -0.00386906 0.0 
0.999519 -0.000390665 0.0 
1.00171 -0.00061984 0.0 
0.0140598 0.000825415 0.0 
1.01442 -0.00375359 0.0 
1.00871 -0.00466514 0.0 
1.01316 -0.00842254 0.0 
1.00194 -0.000238713 0.0 
1.00408 -0.00821795 0.0 
1.00222 -0.00268748 0.0 
0 0 0.0 
1.00109 -0.00125363 0.0 
0.732839 -0.136202 0.0 
1.04152 -0.0463231 0.0 
0.997446 0.00573866 0.0 
1.00002 -3.94156e-05 0.0 
0.99778 -0.00515451 0.0 
0.99023 0.000366232 0.0 
1.00084 0.0097246 0.0 
1.00258 -0.000533432 0.0 
0.326915 0.0333064 0.0 
1.00148 0.00401535 0.0 
1.00168 -0.00157307 0.0 
1.00183 -0.00206645 0.0 
1.00112 -0.00319229 0.0 
0 0 0.0 
0.999275 -0.000321347 0.0 
1.00111 -0.000673103 0.0 
0.999333 0.0058897 0.0 
0.999754 -0.00233619 0.0 
1.00135 -0.000805258 0.0 
1.0001 -0.00146263 0.0 
1.00243 -0.00347354 0.0 
0.995465 -0.0131044 0.0 
0.999981 0.00131289 0.0 
0.998709 0.00309777 0.0 
0.997206 -0.000296202 0.0 
1.00099 -0.000516102 0.0 
1.0009 -0.00103585 0.0 
1.00154 0.00106073 0.0 
1.05048 -0.2233 0.0 
0.99727 -0.00667361 0.0 
0.998505 0.00569365 0.0 
1.00001 0.000338129 0.0 
1.00576 -0.00332976 0.0 
1.00192 0.00287101 0.0 
1.00193 -0.000416983 0.0 
0.999875 -0.000842509 0.0 
1.00185 0.0032211 0.0 
1.00418 -0.0268513 0.0 
1.00226 -0.00237846 0.0 
1.00134 -0.000919317 0.0 
0.999134 0.000910062 0.0 
0.991144 0.0012466 0.0 
1.00112 0.00157526 0.0 
1.00072 -0.00035037 0.0 
0.98799 -0.00724432 0.0 
1.00141 -0.00107563 0.0 
0.999043 -0.00495996 0.0 
1.00179 -0.00104443 0.0 
0.999256 -0.00202623 0.0 
1.00232 0.000495194 0.0 
1.00119 -0.0032766 0.0 
1.00062 -0.000966631 0.0 
1.00066 0.000535319 0.0 
1.0009 -0.00044426 0.0 
1.00045 -0.000999899 0.0 
0.999871 0.00162688 0.0 
1.00046 0.00162723 0.0 
1.00199 0.00130334 0.0 
1.00137 -0.000503409 0.0 
1.0011 -0.0007621 0.0 
0.998406 0.00171015 0.0 
1.00117 0.00134403 0.0 
1.00234 0.00260784 0.0 
0.999989 -0.000149305 0.0 
1.00107 -0.000585448 0.0 
0.997729 0.00194394 0.0 
0.999996 -2.51748e-05 0.0 
0.999862 -0.00153986 0.0 
1.00019 -0.000335605 0.0 
1.00003 -4.79554e-05 0.0 
1.00084 -0.00120168 0.0 
0.998566 8.22456e-05 0.0 
0 0 0.0 
1.00081 -0.00237992 0.0 
0.999306 0.00240599 0.0 
0.999592 -0.000415181 0.0 
0.997905 -0.000803803 0.0 
1.00228 -0.00149543 0.0 
1.0001 -0.000109737 0.0 
1.00204 -0.00190466 0.0 
1.00216 -0.00121115 0.0 
0 0 0.0 
1.00098 0.00241537 0.0 
1.05027 -0.0724718 0.0 
1.00162 -0.00123085 0.0 
1.0011 -0.00080023 0.0 
0.998173 0.000104892 0.0 
1.00001 0.000146763 0.0 
1.00004 -0.0109455 0.0 
1.00178 -0.00366144 0.0 
1.00063 -0.000380026 0.0 
0 0 0.0 
1.00145 -0.00121459 0.0 
0.996841 -0.00101686 0.0 
1.00112 0.00100527 0.0 
0.998781 0.00209463 0.0 
1.00597 -0.00340925 0.0 
1.00109 -0.000437889 0.0 
0.999774 -0.00528095 0.0 
0.997528 0.0548584 0.0 
0.993234 0.00331137 0.0 
0.999276 -0.0037673 0.0 
1.00133 -0.00334346 0.0 
1.00171 0.00506577 0.0 
1.00234 -0.00213696 0.0 
1.00423 0.00203014 0.0 
0.995283 -0.0038118 0.0 
0.999159 -0.0003517 0.0 
1.00179 -0.00160214 0.0 
1.00271 -0.000238331 0.0 
1.00103 -0.00251303 0.0 
1.00103 -0.000339136 0.0 
1.00052 -7.3533e-05 0.0 
0.999599 -0.000963538 0.0 
1.00069 0.00076899 0.0 
1.00179 0.0326431 0.0 
1.00142 0.000472023 0.0 
-2.3708e-09 2.53138e-11 0.0 
1.00047 0.00178008 0.0 
1.00035 -0.00244857 0.0 
1.00367 0.00565391 0.0 
1.00685 -0.00438228 0.0 
1.00011 -0.000483075 0.0 
1.00028 -0.00127086 0.0 
1.00055 -0.00327916 0.0 
0.999231 -0.00221762 0.0 
1.00323 0.00124887 0.0 
0.999511 -0.000676951 0.0 
0.994614 0.00322942 0.0 
0.999871 -0.00368585 0.0 
0.99947 0.000264853 0.0 
1.00117 -0.00372781 0.0 
0.980883 -0.00701147 0.0 
1.00019 -0.00392058 0.0 
0.998532 -0.00412214 0.0 
1.00166 -0.00131799 0.0 
1.001 -0.00098661 0.0 
0.998768 -0.000711717 0.0 
1.00136 -0.00448656 0.0 
0.999982 0.00136321 0.0 
0.998258 0.000428422 0.0 
0.993068 0.0013291 0.0 
0.180797 -0.0164694 0.0 
1.00307 -0.000810368 0.0 
1.00142 -0.000207897 0.0 
0.997321 0.00140185 0.0 
0.996748 -0.00156235 0.0 
0.998639 -0.000143494 0.0 
1.00172 0.00148831 0.0 
1.00007 -0.000368095 0.0 
0.999648 -0.004156 0.0 
0.998531 0.000191619 0.0 
0.0275734 -0.00363453 0.0 