<VTKFile type="UnstructuredGrid" version="0.1" byte_order="LittleEndian">
  <UnstructuredGrid>
    <Piece NumberOfPoints="23679" NumberOfCells="47236">
      <Points>
        <DataArray type = "Float64" NumberOfComponents="3" format="ascii">
-5 -7 0.0 
15.5 -7 0.0 
15.5 7 0.0 
-5 7 0.0 
7.63511 2.91639 0.0 
1.87049 1.67084 0.0 
-0.605974 -0.287769 0.0 
2.37337 -3.10656 0.0 
0.929906 2.48659 0.0 
0.824948 -0.0289232 0.0 
0.579762 -2.6174 0.0 
2.75639 -0.320238 0.0 
0.600589 -0.0279367 0.0 
0.809974 0.0358912 0.0 
4.52511 -0.0925724 0.0 
0.692729 -0.023898 0.0 
2.14598 1.71184 0.0 
4.47114 -0.725108 0.0 
2.94972 0.812693 0.0 
-2.51884 -5.20772 0.0 
0.933054 -0.00978829 0.0 
-3.39004 -0.0550254 0.0 
0.209319 0.0741243 0.0 
-0.14562 -1.1416 0.0 
0.16355 -0.0415655 0.0 
4.37129 -0.146188 0.0 
0.125896 0.0617342 0.0 
2.89507 -0.00321849 0.0 
0.117818 -0.0547525 0.0 
0.74577 -0.0190427 0.0 
1.20907 -2.59566 0.0 
7.05945 1.36908 0.0 
1.18414 0.837326 0.0 
-0.664239 0.00933663 0.0 
0.988285 -0.635056 0.0 
0.79931 -0.0154644 0.0 
-0.169857 -0.752454 0.0 
-0.535193 0.781979 0.0 
4.50646 0.336854 0.0 
0.675201 -0.447934 0.0 
4.33956 3.92927 0.0 
7.20401 -0.547152 0.0 
5.06202 0.761268 0.0 
-1.83764 -0.830466 0.0 
2.97447 -2.59497 0.0 
1.77447 -4.2029 0.0 
0.203756 0.0741702 0.0 
2.3905 -0.208726 0.0 
-2.38226 0.0491773 0.0 
1.57579 -4.90006 0.0 
0.892623 0.876713 0.0 
0.619187 0.0692661 0.0 
1.81524 2.22933 0.0 
3.20393 -0.375619 0.0 
0.560088 -0.0307549 0.0 
-4.00064 -1.06423 0.0 
4.1637 1.41296 0.0 
2.03909 0.577378 0.0 
3.97155 -0.451817 0.0 
-1.0713 0.305678 0.0 
1.24518 -0.853569 0.0 
5.30713 0.379083 0.0 
0.993214 0.00283989 0.0 
0.513972 -3.72515 0.0 
4.25372 1.90694 0.0 
0.87556 0.025233 0.0 
0.401296 0.0780688 0.0 
0.44761 -0.0359067 0.0 
-3.06259 -0.640688 0.0 
0.58449 -3.29242 0.0 
4.47137 0.702541 0.0 
-0.523713 -0.272593 0.0 
-0.477755 -0.422453 0.0 
0.570246 -0.533547 0.0 
0.538433 -0.0310055 0.0 
5.2741 -1.01059 0.0 
2.21102 -1.39328 0.0 
1.30783 -0.274121 0.0 
4.18709 -1.48886 0.0 
-1.19726 -3.28581 0.0 
-0.0359698 -1.75399 0.0 
0.617039 -0.0263973 0.0 
5.83653 0.150199 0.0 
5.57946 0.224905 0.0 
0.377841 -0.038928 0.0 
1.38254 1.36675 0.0 
2.58372 -1.06479 0.0 
4.70454 -3.6075 0.0 
0.551438 0.113173 0.0 
0.532912 -0.0384617 0.0 
-0.392031 -0.729994 0.0 
4.38556 1.53498 0.0 
-1.34387 -2.96962 0.0 
4.73748 -0.295427 0.0 
5.13252 -2.84762 0.0 
5.34987 1.08334 0.0 
0.326684 0.0802051 0.0 
1.0681 0.191919 0.0 
0.292684 0.0800176 0.0 
-0.288073 -0.693253 0.0 
0.850052 0.029488 0.0 
7.72674 -2.22661 0.0 
5.73402 0.253504 0.0 
3.27298 3.73283 0.0 
2.31769 -0.889324 0.0 
3.24694 -2.57408 0.0 
-0.795775 -5.8192 0.0 
0.667923 -0.0361302 0.0 
0.835769 0.0314682 0.0 
4.69839 -1.50939 0.0 
4.91709 3.01814 0.0 
0.151849 -0.0409087 0.0 
3.55148 0.264681 0.0 
0.842117 -0.794382 0.0 
2.65591 1.43349 0.0 
0.932811 0.0144733 0.0 
-0.764917 -0.926758 0.0 
3.60734 -0.915315 0.0 
-0.605852 0.649115 0.0 
5.76621 -0.263827 0.0 
3.08877 -0.924843 0.0 
0.899825 -0.00795866 0.0 
6.80384 1.26814 0.0 
3.19847 -0.826277 0.0 
0.0166341 -0.0962489 0.0 
3.983 -1.51439 0.0 
5.81155 1.05052 0.0 
0.403773 -0.0376754 0.0 
4.06583 -0.737319 0.0 
3.85222 3.16404 0.0 
7.27994 -0.917065 0.0 
7.01199 -1.44503 0.0 
5.44634 0.7472 0.0 
5.43495 -0.0201864 0.0 
1.51213 -0.834065 0.0 
1.97076 0.806002 0.0 
0.634487 0.0595385 0.0 
-0.572414 -4.29099 0.0 
1.8826 -0.733417 0.0 
0.759381 -0.180619 0.0 
0.40132 0.0778474 0.0 
0.23454 -0.0430222 0.0 
-0.802406 2.95957 0.0 
0.691963 0.0549995 0.0 
5.47277 -0.740356 0.0 
14.1487 4.94071 0.0 
0.0736498 -1.30758 0.0 
-3.24273 0.882011 0.0 
1.37104 -0.876055 0.0 
-0.483647 -0.194829 0.0 
2.83565 1.06937 0.0 
5.52957 -1.21731 0.0 
0.947149 -0.00912481 0.0 
-0.408161 -0.611461 0.0 
-0.824132 1.91234 0.0 
-0.28194 0.734853 0.0 
-2.58987 -0.112571 0.0 
5.39673 0.0810302 0.0 
0.347037 -1.34491 0.0 
1.28521 2.08402 0.0 
0.220369 -0.0424097 0.0 
-0.490215 0.575937 0.0 
1.64934 -1.3049 0.0 
0.153085 0.0664047 0.0 
-0.251695 -2.55503 0.0 
0.826156 -0.0139773 0.0 
3.35673 0.186652 0.0 
4.62807 -2.39408 0.0 
-1.05781 -1.39579 0.0 
-2.54531 4.21509 0.0 
1.60336 1.51116 0.0 
0.713093 0.0498095 0.0 
0.643534 0.0642145 0.0 
-3.64101 4.81173 0.0 
-1.26922 -3.94313 0.0 
-0.342655 -1.12768 0.0 
3.30326 0.952175 0.0 
5.64264 0.331249 0.0 
1.34559 -0.214642 0.0 
1.60527 0.321358 0.0 
0.328683 -0.0401423 0.0 
3.81728 0.37784 0.0 
4.37562 0.758715 0.0 
5.5831 -1.82905 0.0 
-1.49688 0.101849 0.0 
-1.70027 -0.343758 0.0 
0.937041 0.0136815 0.0 
5.60623 1.42522 0.0 
-1.23169 -0.42816 0.0 
1.69627 2.52442 0.0 
1.36245 -1.5082 0.0 
1.25107 -3.80948 0.0 
2.74679 0.528168 0.0 
5.36614 -1.19177 0.0 
0.605019 1.16677 0.0 
-4.58423 -1.62108 0.0 
-2.02651 2.34708 0.0 
3.99339 3.63024 0.0 
-1.36142 -0.0750085 0.0 
5.19766 -0.482867 0.0 
-3.85513 -1.43107 0.0 
0.966422 0.00919783 0.0 
0.247834 0.0870881 0.0 
-0.465649 -0.817954 0.0 
4.29025 4.26714 0.0 
1.18312 -0.431176 0.0 
9.21986 0.0258833 0.0 
5.39136 -0.625475 0.0 
5.56604 0.611257 0.0 
1.96388 -1.61685 0.0 
0.196106 -0.0423443 0.0 
2.93186 0.364486 0.0 
5.88518 0.822328 0.0 
0.824138 -0.0139123 0.0 
-0.47228 -0.526413 0.0 
0.477118 -0.0338206 0.0 
-4.64673 -2.62107 0.0 
4.10712 -0.887195 0.0 
0.710355 0.0501717 0.0 
1.64936 -0.864917 0.0 
-1.61346 -3.22424 0.0 
0.0092848 0.0284272 0.0 
7.26993 2.53793 0.0 
1.1048 2.83071 0.0 
10.1588 1.30502 0.0 
-0.263385 -0.26391 0.0 
13.7005 7 0.0 
0.52333 0.0703707 0.0 
4.58595 -1.29531 0.0 
5.62067 -0.188463 0.0 
0.799738 -0.0147854 0.0 
11.9625 -2.20661 0.0 
5.40435 0.619553 0.0 
3.28687 -1.45096 0.0 
0.458966 0.0872446 0.0 
5.51568 -0.596029 0.0 
-1.63011 3.37507 0.0 
0.293181 -0.0414659 0.0 
0.865321 -2.71027 0.0 
0.786038 -0.0158333 0.0 
0.0736186 0.0492692 0.0 
4.13993 -2.76136 0.0 
0.881421 -0.0921271 0.0 
0.266317 -3.38104 0.0 
4.88629 -0.852705 0.0 
0.437008 0.076424 0.0 
3.8816 4.12562 0.0 
7.92184 -0.0908268 0.0 
0.176354 -0.0480078 0.0 
-0.662142 0.143724 0.0 
6.26015 0.128606 0.0 
0.915518 -0.00670685 0.0 
3.62021 -1.04763 0.0 
1.34876 0.720027 0.0 
0.982357 -3.49725 0.0 
0.663709 0.0566737 0.0 
5.3066 -0.705713 0.0 
-0.944514 -3.61431 0.0 
1.79294 -0.661223 0.0 
-0.342215 2.27409 0.0 
5.88842 -0.367403 0.0 
0.211839 -0.0420107 0.0 
0.654413 -0.0369233 0.0 
3.68564 6.54289 0.0 
5.00064 1.8515 0.0 
0.69027 0.0546811 0.0 
1.12166 0.441142 0.0 
7.31715 -3.60167 0.0 
2.79958 1.64327 0.0 
0.433465 0.0764782 0.0 
0.584196 0.0652607 0.0 
0.0636322 -0.695974 0.0 
-1.81416 1.63551 0.0 
0.74075 0.0465749 0.0 
2.69342 -1.49048 0.0 
4.86008 -1.00044 0.0 
0.822907 -0.0142337 0.0 
-0.164664 0.307939 0.0 
4.48127 5.51069 0.0 
4.4895 -4.79993 0.0 
5.37438 1.55243 0.0 
0.123991 1.28664 0.0 
6.41782 -0.499678 0.0 
3.16721 -0.70129 0.0 
1.99155 -0.729552 0.0 
4.69954 4.16905 0.0 
-1.91695 -2.36563 0.0 
8.09216 1.16816 0.0 
0.242046 0.0802658 0.0 
2.34355 2.47663 0.0 
2.72841 -0.285972 0.0 
13.5916 6.05949 0.0 
1.64671 4.40597 0.0 
3.03209 1.84093 0.0 
-0.498111 0.662759 0.0 
0.765551 -2.10462 0.0 
5.25655 0.61914 0.0 
6.04759 -2.75505 0.0 
1.12471 -0.237361 0.0 
6.40695 -2.14103 0.0 
4.37139 0.883681 0.0 
0.240004 -0.042139 0.0 
-4.55867 -4.42627 0.0 
-1.09286 3.96435 0.0 
-1.07351 0.572111 0.0 
3.73338 -0.828021 0.0 
-0.766762 -0.403459 0.0 
0.402752 -1.68281 0.0 
0.925255 0.0164317 0.0 
0.88786 -0.943606 0.0 
0.505244 -0.025873 0.0 
-0.299243 0.0389379 0.0 
3.36416 0.723434 0.0 
0.636773 1.7916 0.0 
0.0435288 1.09333 0.0 
0.74756 2.65039 0.0 
5.12608 -1.02106 0.0 
3.05399 0.794214 0.0 
3.3685 -2.29577 0.0 
9.40833 4.18552 0.0 
0.726496 1.10014 0.0 
-1.43587 -0.265452 0.0 
1.53809 -0.965095 0.0 
3.65342 -1.2467 0.0 
3.58193 2.86195 0.0 
1.58453 1.05649 0.0 
0.69113 -0.0216886 0.0 
4.67304 -0.737386 0.0 
2.403 -2.53676 0.0 
-0.883615 -1.03632 0.0 
0.570985 0.067201 0.0 
4.5489 1.01634 0.0 
1.30188 0.95494 0.0 
4.78484 -2.98767 0.0 
0.647276 3.74647 0.0 
1.64058 -1.98991 0.0 
5.60464 1.66025 0.0 
-2.46641 -2.76999 0.0 
0.0236771 0.0292808 0.0 
1.83737 -2.85625 0.0 
0.712397 -0.0207427 0.0 
-0.929233 -3.15638 0.0 
5.62429 -0.0217768 0.0 
0.696715 -0.0236006 0.0 
4.31467 0.462465 0.0 
1.90518 -1.00498 0.0 
3.8123 -0.317197 0.0 
-1.40698 0.43063 0.0 
8.12686 0.163945 0.0 
0.0912505 -0.0517404 0.0 
0.360402 0.0788181 0.0 
0.766222 5.08386 0.0 
0.543306 0.227627 0.0 
0.768677 -0.887089 0.0 
13.8069 6.49329 0.0 
3.14545 -0.527242 0.0 
3.00213 0.685174 0.0 
-3.26851 -1.17579 0.0 
0.326091 -0.0407782 0.0 
-0.350969 -1.28117 0.0 
-1.34372 -4.38367 0.0 
-1.47047 0.274883 0.0 
8.69891 -0.824176 0.0 
0.572752 0.0666296 0.0 
3.02391 1.56815 0.0 
0.546825 -0.0304958 0.0 
7.53034 -2.92118 0.0 
0.862614 -3.9233 0.0 
7.46433 -0.686568 0.0 
0.435695 0.0763326 0.0 
-0.291216 -0.600905 0.0 
0.958024 -0.00418663 0.0 
0.996359 0.00209859 0.0 
-3.04054 -1.35802 0.0 
7.86523 -1.29492 0.0 
0.824153 0.0339519 0.0 
-2.0843 -1.39076 0.0 
2.0242 4.23744 0.0 
6.10554 -1.09258 0.0 
0.070474 0.0518922 0.0 
0.253412 0.0852338 0.0 
4.90662 -3.37133 0.0 
5.3389 -1.37998 0.0 
8.18441 -5.4394 0.0 
4.74018 -1.11041 0.0 
-1.45792 -1.69797 0.0 
-0.658439 1.28669 0.0 
-1.47154 1.02941 0.0 
0.548603 -1.30682 0.0 
-4.28372 4.01846 0.0 
0.597388 -0.031556 0.0 
0.976283 3.91053 0.0 
-1.97604 3.44687 0.0 
-0.823498 -1.2495 0.0 
-0.676338 -0.322971 0.0 
0.0194499 -2.00073 0.0 
6.06625 2.2173 0.0 
4.77636 1.32682 0.0 
3.5286 -1.40716 0.0 
2.2348 6.10147 0.0 
4.3501 1.14584 0.0 
-0.374853 0.997283 0.0 
0.331239 -0.0398749 0.0 
2.92416 0.944765 0.0 
-1.08711 -0.79613 0.0 
-2.10643 0.811211 0.0 
10.0853 -2.20029 0.0 
9.19723 -1.4685 0.0 
-3.63493 -2.23583 0.0 
9.13289 -4.40814 0.0 
0.13646 -0.0401233 0.0 
3.73879 -1.49966 0.0 
1.16246 1.31001 0.0 
1.76621 -0.985528 0.0 
0.279409 0.0783782 0.0 
4.49882 0.813878 0.0 
0.0773295 0.0501322 0.0 
-1.7711 -2.7915 0.0 
2.21785 -2.83793 0.0 
1.9729 0.35934 0.0 
6.07917 0.172121 0.0 
-1.06801 -1.19434 0.0 
-0.742511 -0.787541 0.0 
4.55801 -0.996424 0.0 
10.0032 -3.21238 0.0 
4.23955 3.27 0.0 
4.4588 0.213546 0.0 
-3.41169 -1.50587 0.0 
0.374392 0.944982 0.0 
[...]
<PointData>
  <DataArray type = "Float64" Name="VitesseP1" NumberOfComponents="3" format="ascii">
1 0 0.0 
1.00017 0 0.0 
0.999841 0 0.0 
1 0 0.0 
0.999497 0.000203828 0.0 
1.00095 -0.00848587 0.0 
0.984187 -0.00531081 0.0 
1.00212 -7.82067e-05 0.0 
1.0045 -0.00273755 0.0 
0.646069 0.0403959 0.0 
1.00199 -0.00153328 0.0 
1.01391 0.000392698 0.0 
0.0117778 0.00036519 0.0 
0 0 0.0 
0.999046 0.00333851 0.0 
0.0913775 0.00571223 0.0 
0.999254 -0.00737242 0.0 
1.0006 0.0031245 0.0 
0.989783 -0.00389787 0.0 
1.00016 -0.000414768 0.0 
0.159976 0.0107359 0.0 
0.999516 0.00123922 0.0 
0.0787815 0.00959994 0.0 
1.0021 -0.00739808 0.0 
1.23066e-08 -5.00954e-10 0.0 
0.999157 0.00382851 0.0 
3.1616e-08 7.0004e-09 0.0 
0.979021 0.00344283 0.0 
1.14641 -0.114212 0.0 
0.019205 0.00179471 0.0 
1.00232 -0.000989415 0.0 
0.999404 0.000564295 0.0 
1.01036 -0.0227569 0.0 
0.982579 0.00532629 0.0 
1.00443 0.0067739 0.0 
0.0140486 0.000665786 0.0 
1.00088 -0.0139287 0.0 
1.00215 0.0159367 0.0 
0.997941 0.00282925 0.0 
1.01864 0.0115354 0.0 
0.999441 -0.000736774 0.0 
0.999912 0.00087931 0.0 
0.998339 0.00148253 0.0 
0.997273 -0.000362649 0.0 
1.00234 0.000424074 0.0 
1.00155 -0.000307706 0.0 
0.176366 0.017767 0.0 
1.01107 -0.00973695 0.0 
0.99828 0.00202606 0.0 
1.00133 -0.000267989 0.0 
1.0204 -0.0183089 0.0 
0.444624 -0.0446272 0.0 
1.00159 -0.00523788 0.0 
1.0077 0.00743285 0.0 
0.03133 0.00191166 0.0 
0.999834 0.000411917 0.0 
0.996806 0.000113025 0.0 
0.990956 -0.0177173 0.0 
1.00088 0.00500603 0.0 
0.993242 0.0070594 0.0 
1.0026 0.00167154 0.0 
0.99889 0.00168702 0.0 
-2.7054e-09 -7.98001e-10 0.0 
1.00136 -0.000917508 0.0 
0.997628 -0.000477018 0.0 
0.000389816 -6.17373e-05 0.0 
3.38016e-08 -4.58845e-10 0.0 
0 0 0.0 
0.999202 0.000845315 0.0 
1.00156 -0.00107814 0.0 
0.997289 0.00203301 0.0 
0.981645 -0.00746191 0.0 
0.98719 -0.011468 0.0 
1.0195 0.00406367 0.0 
0 0 0.0 
1.00035 0.00190889 0.0 
1.00362 -0.000616989 0.0 
0.988623 0.00297206 0.0 
1.00179 0.00218461 0.0 
1.00037 -0.00125727 0.0 
1.00201 -0.00369404 0.0 
0 0 0.0 
0.99936 0.00140385 0.0 
0.9992 0.00155712 0.0 
3.37197e-08 1.54093e-09 0.0 
1.00535 -0.0118583 0.0 
1.00505 -0.000289728 0.0 
1.00127 0.000627802 0.0 
1.13459 -0.0723794 0.0 
0.392354 0.0206812 0.0 
0.99602 -0.0115448 0.0 
0.997352 0.00015827 0.0 
1.00014 -0.00139267 0.0 
0.999563 0.00287352 0.0 
1.00112 0.000949909 0.0 
0.998534 0.00100529 0.0 
0.119339 0.000470951 0.0 
0.993597 -0.0700218 0.0 
0.151895 0.00376785 0.0 
0.996984 -0.0140247 0.0 
2.55902e-09 -5.33774e-10 0.0 
1.00031 0.00065727 0.0 
0.999253 0.00143567 0.0 
0.999796 -0.00137504 0.0 
1.00506 -0.00187118 0.0 
1.00224 0.000629965 0.0 
1.00064 -0.000315936 0.0 
0.607263 0.0357492 0.0 
0 0 0.0 
1.00114 0.00195399 0.0 
0.998926 -0.000435684 0.0 
0 0 0.0 
0.992322 0.00698836 0.0 
1.0075 0.00320662 0.0 
0.995556 -0.00609649 0.0 
0 0 0.0 
0.996029 -0.00554197 0.0 
1.00329 0.00366412 0.0 
0.998242 0.0163468 0.0 
0.999645 0.00157027 0.0 
1.00548 0.0023171 0.0 
0 0 0.0 
0.999346 0.000621867 0.0 
1.00547 0.00324437 0.0 
1.0008 -0.175235 0.0 
1.00212 0.00213895 0.0 
0.998922 0.000920192 0.0 
0 0 0.0 
1.0014 0.00387819 0.0 
0.999108 -0.00123466 0.0 
1.00003 0.00086212 0.0 
1.0002 0.000916991 0.0 
0.998754 0.0012828 0.0 
0.999347 0.00179895 0.0 
1.00141 -0.000241873 0.0 
0.994529 -0.0161849 0.0 
0 0 0.0 
1.00076 -0.000813995 0.0 
1.00224 -0.00293126 0.0 
1.01801 0.036587 0.0 
0 0 0.0 
0.0468757 0.000475244 0.0 
1.00292 0.00172287 0.0 
0.0766257 -0.0096098 0.0 
1.00005 0.00181663 0.0 
0.999843 3.05687e-05 0.0 
1.00355 -0.0055799 0.0 
0.999772 0.00189478 0.0 
1.00195 0.000688722 0.0 
0.977093 -0.00620374 0.0 
0.992416 -0.0053668 0.0 
1.0004 0.00163293 0.0 
0.172233 0.011377 0.0 
0.993105 -0.0127364 0.0 
1.004 0.00435509 0.0 
1.00766 0.0216564 0.0 
0.998603 0.00164782 0.0 
0.999227 0.00179169 0.0 
1.00461 -0.00382348 0.0 
1.00434 -0.00530181 0.0 
7.80327e-09 -1.99161e-10 0.0 
0.997792 0.020619 0.0 
1.00296 -0.000713557 0.0 
0 0 0.0 
1.00112 -0.00208451 0.0 
0.0269353 0.00205012 0.0 
0.988276 0.0093229 0.0 
1.00139 0.00122636 0.0 
0.998236 -0.00318436 0.0 
1.0007 0.00122565 0.0 
1.00268 -0.0102177 0.0 
0 0 0.0 
0.282381 -0.0310883 0.0 
1.00018 0.000482211 0.0 
1.00044 -0.000930049 0.0 
1.00019 -0.00741944 0.0 
0.992535 -0.00115526 0.0 
0.999145 0.001452 0.0 
0.986557 8.29656e-05 0.0 
0.990502 -0.0274043 0.0 
0 0 0.0 
0.994943 0.00465084 0.0 
0.996984 0.00193556 0.0 
1.0007 0.00134407 0.0 
0.995426 0.00344955 0.0 
0.996155 0.00104938 0.0 
0 0 0.0 
0.99873 0.000680108 0.0 
0.99384 -0.00034572 0.0 
1.00209 -0.00408495 0.0 
1.00329 -0.000717263 0.0 
1.00161 -0.000589298 0.0 
0.984913 -0.00674411 0.0 
1.00045 0.00175182 0.0 
1.01879 -0.00535233 0.0 
0.999984 9.12802e-05 0.0 
1.0012 0.0029635 0.0 
0.999358 -0.000996089 0.0 
0.994103 0.00245672 0.0 
0.999824 0.00213973 0.0 
0.999801 0.00031751 0.0 
-0.00870187 0.00180982 0.0 
1.09671 0.0822874 0.0 
0.996618 -0.00951782 0.0 
0.999624 -0.000674014 0.0 
0.996086 0.00770039 0.0 
0.999898 0.000439236 0.0 
0.999956 0.00191325 0.0 
0.998919 0.00132638 0.0 
1.00325 -0.000604009 0.0 
1.96266e-08 -9.77125e-10 0.0 
0.981662 -0.001867 0.0 
0.999036 0.00104083 0.0 
0.0180593 0.00118232 0.0 
0.990319 -0.0115955 0.0 
0 0 0.0 
0.999997 1.67283e-05 0.0 
1.00154 0.00342643 0.0 
0 0 0.0 
1.00182 -0.00111597 0.0 
1.00015 -0.00118504 0.0 
0.680578 0.494017 0.0 
0.999419 0.000259425 0.0 
1.00327 -0.00243365 0.0 
0.999829 0.000279758 0.0 
0.97486 -0.025264 0.0 
0.999822 0 0.0 
0 0 0.0 
1.00114 0.00227094 0.0 
0.999556 0.00167692 0.0 
0 0 0.0 
1.00011 0.000194273 0.0 
0.998789 0.00141241 0.0 
1.00342 0.0016993 0.0 
0.875453 -0.0405062 0.0 
0.999915 0.00179924 0.0 
1.00162 0.00173502 0.0 
1.75095e-08 7.97593e-10 0.0 
1.00209 -0.00123896 0.0 
0 0 0.0 
7.02157e-08 2.11925e-08 0.0 
1.00166 0.000925888 0.0 
1.00056 0.0481732 0.0 
1.00135 -0.00116919 0.0 
1.00041 0.00238976 0.0 
0 0 0.0 
0.999685 -0.000882132 0.0 
0.999839 0.000662275 0.0 
0.692542 -0.0259852 0.0 
0.984212 0.0100885 0.0 
0.999513 0.00116984 0.0 
0 0 0.0 
1.00315 0.00317447 0.0 
1.00452 -0.0254536 0.0 
1.00164 -0.000809562 0.0 
0.00601021 -0.000727067 0.0 
1.00005 0.00198065 0.0 
1.00056 -0.00114195 0.0 
1.00107 -0.00305488 0.0 
1.00517 0.00219334 0.0 
0.999738 0.00149523 0.0 
0 0 0.0 
0.610822 0.0356042 0.0 
1.00017 -0.000127619 0.0 
0.998282 0.000209958 0.0 
0.0537858 -0.00665951 0.0 
1.0085 -0.0428761 0.0 
1.00058 0.000515869 0.0 
0.996471 -0.00480967 0.0 
0 0 0.0 
9.33153e-09 -6.34822e-10 0.0 
1.0079 -0.0152865 0.0 
1.00091 0.00400132 0.0 
0.00464919 -0.000628017 0.0 
1.00388 0.000347284 0.0 
1.00059 0.00231135 0.0 
0.0286073 0.00171015 0.0 
0.988345 0.0558139 0.0 
0.999888 -0.000324106 0.0 
1.00121 0.000292459 0.0 
0.998539 0.000572046 0.0 
1.0141 0.00455227 0.0 
0.999854 0.00119082 0.0 
1.00613 0.00382263 0.0 
1.00302 -0.0032443 0.0 
0.999497 -0.000537774 0.0 
0.999575 -0.00124451 0.0 
0.999646 0.000479133 0.0 
0.559401 0.0408625 0.0 
0.99993 -0.00395025 0.0 
1.01477 -0.000460598 0.0 
0.999823 1.66095e-05 0.0 
1.00119 -0.00100177 0.0 
0.997011 -0.00353776 0.0 
0.999745 0.0187045 0.0 
1.0027 -0.00167993 0.0 
0.998655 0.00151464 0.0 
1.00075 0.00087726 0.0 
0.986449 0.0149545 0.0 
1.00051 0.000975138 0.0 
0.996992 0.00158388 0.0 
0 0 0.0 
1 -2.73829e-05 0.0 
1.00176 0.000974365 0.0 
0.996272 0.008558 0.0 
1.0027 0.00402881 0.0 
0.989592 -0.00394437 0.0 
1.00338 -0.00288545 0.0 
-1.26152e-08 1.89353e-09 0.0 
1.00613 0.00133221 0.0 
0 0 0.0 
0.952768 0.0129697 0.0 
0.991306 0.00069573 0.0 
1.00921 -0.00298487 0.0 
1.01658 0.00911393 0.0 
1.00435 -0.00186745 0.0 
1.00043 0.00203177 0.0 
0.989891 -0.00267523 0.0 
1.00238 0.000858908 0.0 
0.999687 0.000109793 0.0 
1.01874 -0.0090935 0.0 
0.994873 0.00115688 0.0 
1.00209 -0.000413356 0.0 
1.00287 0.00259213 0.0 
0.998856 -0.0016683 0.0 
1.00207 -0.01615 0.0 
0 0 0.0 
1.00041 0.00276988 0.0 
1.00251 -4.18817e-05 0.0 
0.996835 -0.00452327 0.0 
0.0319152 -0.00249411 0.0 
0.997374 0.00124178 0.0 
1.00743 -0.0193343 0.0 
1.00128 0.000891737 0.0 
1.00232 -0.000702962 0.0 
1.00291 -0.000690222 0.0 
0.998725 0.000508452 0.0 
0.999775 -0.000840641 0.0 
5.77717e-08 2.90913e-08 0.0 
1.00227 -0.000444345 0.0 
2.62186e-08 1.98247e-09 0.0 
1.0005 -0.00141604 0.0 
0.999414 0.00162806 0.0 
0.0886184 0.00584442 0.0 
0.997192 0.00290322 0.0 
1.00298 -0.00155431 0.0 
1.00086 0.00630241 0.0 
0.996189 0.00537012 0.0 
0.999805 0.000597654 0.0 
1.14916 -0.157021 0.0 
1.27385e-08 5.52209e-10 0.0 
1.0013 -0.000330628 0.0 
1.10793 -0.0430472 0.0 
1.00796 0.00119212 0.0 
0.999824 8.38981e-06 0.0 
1.00748 0.00505773 0.0 
0.988408 -0.00276866 0.0 
0.999482 0.000422588 0.0 
0.012248 0.000605743 0.0 
1.00034 -0.00605698 0.0 
1.00047 -0.000763189 0.0 
0.995873 0.00436714 0.0 
1.00001 0.000541152 0.0 
0.00978941 -0.00112836 0.0 
0.995753 -0.00385136 0.0 
0 0 0.0 
1.00046 0.00059884 0.0 
1.00144 -0.000699808 0.0 
0.999962 0.000807923 0.0 
0 0 0.0 
0.995088 -0.0162013 0.0 
0 0 0.0 
0 0 0.0 
0.999348 0.000197404 0.0 
1.00011 0.000698326 0.0 
0.00231131 -0.000452319 0.0 
0.998547 -0.000796015 0.0 
1.00095 -0.00123328 0.0 
1.00018 0.00132417 0.0 
0.796186 0.251234 0.0 
0.96453 0.0670155 0.0 
1.00122 0.000729638 0.0 
1.00059 0.0016766 0.0 
1.00057 0.000193552 0.0 
1.00081 0.00232802 0.0 
0.998809 -0.00200811 0.0 
1.00442 0.00847167 0.0 
0.999427 0.00571798 0.0 
1.00516 -0.00264272 0.0 
1.00004 0.000376617 0.0 
0.192048 0.0111644 0.0 
1.00196 -0.000945603 0.0 
1.0013 0.00179794 0.0 
0.998017 -0.00434271 0.0 
0.986708 -0.00444379 0.0 
1.0018 -0.00291909 0.0 
0.999032 0.000266525 0.0 
0.997837 0.000715809 0.0 
1.00304 0.00208898 0.0 
1.00064 -0.000280447 0.0 
0.996928 0.000903903 0.0 
1.00749 0.013589 0.0 
0 0 0.0 
0.991271 -0.00439819 0.0 
0.995136 -0.00290145 0.0 
0.998954 0.00367167 0.0 
1.00016 0.000336683 0.0 
1.0001 0.000461897 0.0 
0.999841 5.391e-05 0.0 
1.00041 0.000263089 0.0 
0 0 0.0 
1.00256 0.00210154 0.0 
1.00873 -0.011841 0.0 
1.00249 -0.00134006 0.0 
0 0 0.0 
0.997312 0.00171562 0.0 
0 0 0.0 
0.999879 -0.00125408 0.0 
1.00229 -0.000181212 0.0 
0.988633 -0.0207419 0.0 
0.999435 0.00125 0.0 
0.997404 -0.0033405 0.0 
0.994745 -0.00603258 0.0 
1.00089 0.00264531 0.0 
1.00026 0.000295916 0.0 
0.999092 -0.000897926 0.0 
0.998132 0.00317484 0.0 
0.999614 0.000266088 0.0 
1.02572 0.00181178 0.0 
0 0 0.0 
1.00006 0.000121647 0.0 
1.02049 0.0125687 0.0 
0.999922 0.00054205 0.0 
0.997858 0.0110312 0.0 
1.00387 -0.000204656 0.0 
0.0260887 -0.00404628 0.0 
1.00155 0.0023809 0.0 
1.00273 -0.0125793 0.0 
1.00095 0.00177062 0.0 
0.995913 -0.00199258 0.0 
4.4601e-08 8.27777e-10 0.0 
1.00015 0.000197806 0.0 
0.997744 0.00126207 0.0 
0 0 0.0 
1.00473 0.000450984 0.0 
1.00219 0.00498401 0.0 
2.56452e-07 -9.03145e-09 0.0 
1.00647 0.00177748 0.0 
0.998776 -0.00239537 0.0 
0.99913 0.000151244 0.0 
0.0180399 0.000484003 0.0 
1.00615 -0.000377553 0.0 
1.00069 0.000213262 0.0 
1.00216 0.00259915 0.0 
1.01224 -0.00137929 0.0 
1.00019 8.98343e-05 0.0 
1.00079 -0.00159532 0.0 
1.00042 0.000155937 0.0 
0.999988 0.00356435 0.0 
1.00264 0.00341436 0.0 
0.109038 0.020501 0.0 
1.00271 0.000194277 0.0 
0.287133 0.0220102 0.0 
1.00321 -0.00154338 0.0 
1.00014 0.00113315 0.0 
1.00008 0.00270703 0.0 
1.00134 8.08754e-05 0.0 
1.00033 0.00128809 0.0 
1.00004 0.00187286 0.0 
0.999502 0.00235348 0.0 
1.00084 0.000183749 0.0 
1.02224 -0.0122748 0.0 
1.00341 -0.000658585 0.0 
1.00005 0.000205481 0.0 
0 0 0.0 
0.998372 0.000399978 0.0 
0.991887 0.00175098 0.0 
0.999943 0.000160119 0.0 
1.00435 0.0190117 0.0 
0.980759 -0.00672266 0.0 
0.999658 1.185e-05 0.0 
1.00087 0.000684857 0.0 
0.999583 0.00130297 0.0 
0.999589 0.00143908 0.0 
9.26904e-09 1.54255e-10 0.0 
1.00237 0.00150015 0.0 
0.99833 0.00252983 0.0 
1.00103 -0.00217188 0.0 
1.00241 -0.00184991 0.0 
0.995783 0.00234566 0.0 
0 0 0.0 
0.997012 -0.00178302 0.0 
0.999904 0.000461109 0.0 
0.998365 -0.00202719 0.0 
0 0 0.0 
0.99998 6.22034e-05 0.0 
0.999703 0.00138632 0.0 
1.00102 0.000842908 0.0 
1.00349 -0.00178102 0.0 
1.00176 -5.22502e-06 0.0 
1.00192 -0.00680698 0.0 
0.999481 0.00152463 0.0 
1.00083 -0.00400125 0.0 
1.00038 0.000424541 0.0 
0.997069 -0.00135813 0.0 
0.999833 1.35679e-05 0.0 
1.00222 -0.000717707 0.0 
1.00217 0.0018529 0.0 
0.999721 0.00381068 0.0 
0.991195 0.0109365 0.0 
0.999807 3.92179e-05 0.0 
1.00059 -0.0010501 0.0 
1.00156 0.00307844 0.0 
1.00008 0.000330795 0.0 
0.0960364 -0.00596892 0.0 
1.03328 -0.0515542 0.0 
1.00079 0.000245528 0.0 
1.00251 0.000203093 0.0 
0.152256 -0.008726 0.0 
0.997937 -0.000197228 0.0 
0.602547 -0.0598222 0.0 
0.998735 -0.00311751 0.0 
1.00006 -0.000287783 0.0 
0.997648 0.00239009 0.0 
1.00319 2.0035e-05 0.0 
0.996361 -0.00306213 0.0 
0.0102261 0.000402544 0.0 
1.00033 -0.000234342 0.0 
1.00114 -0.0025417 0.0 
1.00065 0.000820537 0.0 
0.999871 0.00034705 0.0 
0.990876 -0.00894609 0.0 
0.998344 0.00060279 0.0 
1.00004 0.00038364 0.0 
0.99854 0.00190562 0.0 
0.992315 -0.0240672 0.0 
1.00212 0.00121659 0.0 
0.996579 -0.000955041 0.0 
1.00311 9.18796e-05 0.0 
6.41872e-09 4.9696e-10 0.0 
0.999834 6.64119e-06 0.0 
8.22113e-08 3.83954e-08 0.0 
0.999407 -0.000402086 0.0 
0.991998 0.00290257 0.0 
1.00063 0.0011007 0.0 
1.00019 0.00186464 0.0 
1.00301 0.000272427 0.0 
0.992823 -0.0166097 0.0 
0 0 0.0 
0.999823 6.04723e-05 0.0 
0.997553 -0.0048891 0.0 
0.999915 7.39577e-05 0.0 
0.0887276 0.0013235 0.0 
0.0234287 0.00115802 0.0 
0 0 0.0 
1.00014 0.000132304 0.0 
0.99952 0.000153664 0.0 
1.00004 -0.00106786 0.0 
1.00017 -0.000989618 0.0 
1.00097 -0.00278283 0.0 
1.00469 0.00203388 0.0 
0.997948 -0.000980389 0.0 
1.00114 -0.00121856 0.0 
0.999428 -0.000107421 0.0 
0.0746789 -0.0105447 0.0 
0.999878 5.2798e-05 0.0 
0.999225 0.0013186 0.0 
1.01144 0.00206532 0.0 
1.00034 0.000496838 0.0 
0.999034 -0.000818937 0.0 
0.997504 0.00051527 0.0 
0.996949 -0.00211939 0.0 
0.998187 -0.00110465 0.0 
1.00012 4.96554e-05 0.0 
0.999575 0.000252557 0.0 
0.98323 -0.00552641 0.0 
1.00015 0.0014828 0.0 
1.00106 0.00111589 0.0 
1.00181 0.000644265 0.0 
0.999982 -0.000677301 0.0 
0.986678 -0.00838647 0.0 
0.985173 -0.0135811 0.0 
1.00646 -0.00213651 0.0 
0.986203 -0.0130741 0.0 
0.997078 -0.00978127 0.0 
1.00193 0.00328154 0.0 
1.00399 0.0130251 0.0 
1.01526 -0.00311126 0.0 
0.993286 -0.00214488 0.0 
0.48626 0.186616 0.0 
1.00362 0.00265579 0.0 
1.00088 -0.00115144 0.0 
0.982804 -0.016419 0.0 
1.00096 0.000411209 0.0 
1.00001 0.000480356 0.0 
0.998742 0.00163282 0.0 
1.0013 0.000250299 0.0 
1.00013 0.000614851 0.0 
1.00193 0.00211741 0.0 
1.00038 0.000752193 0.0 
3.39432e-08 -4.3034e-09 0.0 
0.999209 0.00103411 0.0 
0.999652 0.000154192 0.0 
0.995281 -0.0093899 0.0 
0.999885 -0.00100807 0.0 
1.00067 0.000172307 0.0 
1.00137 -0.00173228 0.0 
1.00013 0.000370119 0.0 
0.997495 -0.00179889 0.0 
0.994454 -0.00129696 0.0 
0.998708 -0.00261779 0.0 
0.999925 0.00107424 0.0 
0.990929 -0.000681672 0.0 
1.00673 -0.000304114 0.0 
0.998948 -0.00017748 0.0 
0.998681 -0.000386926 0.0 
0.999788 0.000276531 0.0 
0.999984 0.00492821 0.0 
1.00048 0.000757216 0.0 
0 0 0.0 
0.999995 0.000261848 0.0 
0.999523 -0.000113682 0.0 
0.996876 0.00127094 0.0 
5.36285e-09 -1.16014e-10 0.0 
1.00077 -0.00049718 0.0 
0.998988 0.000155369 0.0 
0.999665 0.000401229 0.0 
1.00393 0.00310469 0.0 
1.00031 -0.00888531 0.0 
1.00173 0.000114445 0.0 
1.00017 0.000580861 0.0 
0 0 0.0 
1.0005 0.00136778 0.0 
1.00114 -0.00329822 0.0 
1.00328 0.0010503 0.0 
0.999901 0.000991055 0.0 
0.999773 0.000417756 0.0 
0.99993 0.000216459 0.0 
1.00122 -0.000144551 0.0 
1.00266 -0.00447731 0.0 
0.995368 0.00703145 0.0 
1.00372 -0.0409159 0.0 
0.99981 0.00024024 0.0 
1.0039 0.0038468 0.0 
1.00179 -0.000630392 0.0 
1.0012 1.10731e-05 0.0 
0.971348 0.00650592 0.0 
0 0 0.0 
1.0014 0.000512389 0.0 
0.999207 0.00163591 0.0 
0.989289 0.000465049 0.0 
1.00219 -0.000318383 0.0 
0.998297 0.00160832 0.0 
1.00143 0.00175388 0.0 
0.999707 2.64028e-05 0.0 
1.00061 8.76268e-05 0.0 
0.999121 0.00333436 0.0 
1.00135 0.00205926 0.0 
0.999742 -0.000157332 0.0 
1.00033 -0.00491437 0.0 
0.999724 -8.69255e-05 0.0 
1.00114 0.000244828 0.0 
0.0143355 0.000842416 0.0 
1.01132 -0.00717733 0.0 
1.00485 -0.00727982 0.0 
1.01544 -0.00988437 0.0 
1.00097 0.000117676 0.0 
0.996279 -0.011526 0.0 
1.00012 0.00120991 0.0 
0 0 0.0 
1.0028 0.000536171 0.0 
0.736358 -0.147222 0.0 
1.04015 -0.0530226 0.0 
0.99714 0.00440089 0.0 
1.00001 -3.91378e-05 0.0 
0.998701 -0.00674703 0.0 
0.990548 -0.00184102 0.0 
1.00017 0.00788065 0.0 
1.00157 -0.00102246 0.0 
0.330439 0.033641 0.0 
1.00117 0.00345923 0.0 
1.00177 0.00108406 0.0 
1.00156 0.00199077 0.0 
0.997644 -5.15024e-05 0.0 
0 0 0.0 
0.999356 -0.00106009 0.0 
1.00173 -0.000224416 0.0 
0.998965 0.00477769 0.0 
1.00043 -0.00333838 0.0 
1.00162 0.000191356 0.0 
1.00064 -0.00218959 0.0 
0.998034 -0.00295645 0.0 
0.987558 -0.0241745 0.0 
0.999996 7.78499e-05 0.0 
0.998562 0.00247996 0.0 
0.999706 0.000169991 0.0 
1.00143 -0.000229704 0.0 
1.00176 -0.00131987 0.0 
1.00145 0.00082944 0.0 
1.05658 -0.225077 0.0 
0.99833 -0.00842008 0.0 
0.998172 0.0045006 0.0 
1.00001 0.000334946 0.0 
1.00005 0.000772115 0.0 
1.00166 0.00247269 0.0 
1.00369 -0.0012148 0.0 
0.99967 -0.000273707 0.0 
1.00005 0.000237807 0.0 
0.999766 -0.0345857 0.0 
1.00026 0.00141969 0.0 
1.00044 -0.000918768 0.0 
0.999906 5.71544e-05 0.0 
0.993114 -0.00267566 0.0 
1.00008 0.000132421 0.0 
1.00111 -0.000300645 0.0 
0.999851 0.000518821 0.0 
1.00188 0.000441137 0.0 
0.999092 0.00124977 0.0 
1.00128 0.000501877 0.0 
0.999317 3.80425e-07 0.0 
1.00029 0.000143536 0.0 
1.00372 0.00912581 0.0 
1.0034 -0.000329468 0.0 
1.00071 0.000622917 0.0 
1.00313 -0.000744188 0.0 
1.00099 -0.00142585 0.0 
0.999876 0.00155132 0.0 
1.00003 0.000112171 0.0 
1.00017 0.000173763 0.0 
1.00081 -0.000611059 0.0 
1.00271 -0.000712296 0.0 
0.998348 0.00106689 0.0 
1.0001 0.000118661 0.0 
1.00009 0.000254197 0.0 
0.999991 -0.000251086 0.0 
1.00156 -0.00018772 0.0 
0.999868 0.000178792 0.0 
0.999994 -2.19947e-05 0.0 
0.999372 -0.000285418 0.0 
1.00039 -0.000634554 0.0 
1.00003 -5.48433e-05 0.0 
1.00167 -0.00165107 0.0 
0.999811 1.1622e-05 0.0 
0 0 0.0 
0.998625 -0.00062039 0.0 
0.999249 0.00215149 0.0 
0.999687 -0.00108619 0.0 
0.999632 0.000116666 0.0 
1.00376 -0.00242882 0.0 
1.00015 -0.000240547 0.0 
0.999902 -0.00183397 0.0 
1.00106 0.000718594 0.0 
0 0 0.0 
1.00004 0.00017878 0.0 
1.0502 -0.0801452 0.0 
1.00032 -0.00123584 0.0 
1.00209 -0.000317806 0.0 
0.999758 6.0597e-05 0.0 
1.00001 0.000144078 0.0 
0.989955 -0.018845 0.0 
0.99647 -0.00130313 0.0 
1.00103 -0.000404868 0.0 
0 0 0.0 
1.00199 0.000609491 0.0 
0.99966 0.000225709 0.0 
1.00012 8.57745e-05 0.0 
0.999917 0.000152342 0.0 
0.999322 0.0012535 0.0 
1.00137 -6.54202e-05 0.0 
0.999112 0.00112891 0.0 
0.996064 0.0509099 0.0 
0.999866 0.000301762 0.0 
0.999169 0.000490572 0.0 
0.997173 -0.000227686 0.0 
1.00128 0.00419045 0.0 
1.00069 0.00154314 0.0 
1.0034 0.000998853 0.0 
0.999714 0.0004582 0.0 
0.999679 -3.55757e-05 0.0 
1.00009 -0.00155309 0.0 
1.00452 -0.00124403 0.0 
1.0046 0.00360007 0.0 
1.00129 -8.01245e-05 0.0 
1.00085 -8.3458e-05 0.0 
0.999593 -0.000186269 0.0 
1.00072 0.000896593 0.0 
1.00063 0.0292416 0.0 
1.00131 0.000261363 0.0 
-1.66401e-09 -1.46363e-10 0.0 
1.00045 0.00185911 0.0 
0.998793 -0.000253473 0.0 
1.00296 0.0043517 0.0 
0.99999 0.000962724 0.0 
1.00319 -0.000781945 0.0 
1.00083 -0.0018824 0.0 
1.0025 0.00918356 0.0 
1.00614 -0.00208384 0.0 
1.0002 0.000302764 0.0 
0.999669 -0.00013223 0.0 
0.996884 0.000298719 0.0 
1.01504 0.00308539 0.0 
0.999494 2.07702e-05 0.0 
0.997174 0.00224972 0.0 
0.999766 0.000725372 0.0 
0.998911 0.000748112 0.0 
0.999316 0.00052409 0.0 
1.00161 0.000733685 0.0 
1.00281 -1.74854e-05 0.0 
0.999623 -1.42582e-06 0.0 
0.992516 0.000846546 0.0 
0.999987 0.00129017 0.0 
0.999806 7.3956e-05 0.0 
0.999823 0.000325894 0.0 
0.223201 -0.0228431 0.0 
1.00054 0.000577249 0.0 
1.00116 5.52799e-05 0.0 
0.997309 0.000359811 0.0 
0.999631 0.000256954 0.0 
0.999677 5.7688e-06 0.0 
1.00014 0.000163951 0.0 
1.00021 -0.000798325 0.0 
0.999055 0.000840531 0.0 
0.999811 2.73968e-05 0.0 
0.0369045 -0.0049148 0.0 
1.00313 -0.000666051 0.0 
0.997887 -0.0134835 0.0 