<VTKFile type="UnstructuredGrid" version="0.1" byte_order="LittleEndian">
  <UnstructuredGrid>
    <Piece NumberOfPoints="23679" NumberOfCells="47236">
      <Points>
        <DataArray type = "Float64" NumberOfComponents="3" format="ascii">
-5 -7 0.0 
15.5 -7 0.0 
15.5 7 0.0 
-5 7 0.0 
7.63511 2.91639 0.0 
1.87049 1.67084 0.0 
-0.605974 -0.287769 0.0 
2.37337 -3.10656 0.0 
0.929906 2.48659 0.0 
0.824948 -0.0289232 0.0 
0.579762 -2.6174 0.0 
2.75639 -0.320238 0.0 
0.600589 -0.0279367 0.0 
0.809974 0.0358912 0.0 
4.52511 -0.0925724 0.0 
0.692729 -0.023898 0.0 
2.14598 1.71184 0.0 
4.47114 -0.725108 0.0 
2.94972 0.812693 0.0 
-2.51884 -5.20772 0.0 
0.933054 -0.00978829 0.0 
-3.39004 -0.0550254 0.0 
0.209319 0.0741243 0.0 
-0.14562 -1.1416 0.0 
0.16355 -0.0415655 0.0 
4.37129 -0.146188 0.0 
0.125896 0.0617342 0.0 
2.89507 -0.00321849 0.0 
0.117818 -0.0547525 0.0 
0.74577 -0.0190427 0.0 
1.20907 -2.59566 0.0 
7.05945 1.36908 0.0 
1.18414 0.837326 0.0 
-0.664239 0.00933663 0.0 
0.988285 -0.635056 0.0 
0.79931 -0.0154644 0.0 
-0.169857 -0.752454 0.0 
-0.535193 0.781979 0.0 
4.50646 0.336854 0.0 
0.675201 -0.447934 0.0 
4.33956 3.92927 0.0 
7.20401 -0.547152 0.0 
5.06202 0.761268 0.0 
-1.83764 -0.830466 0.0 
2.97447 -2.59497 0.0 
1.77447 -4.2029 0.0 
0.203756 0.0741702 0.0 
2.3905 -0.208726 0.0 
-2.38226 0.0491773 0.0 
1.57579 -4.90006 0.0 
0.892623 0.876713 0.0 
0.619187 0.0692661 0.0 
1.81524 2.22933 0.0 
3.20393 -0.375619 0.0 
0.560088 -0.0307549 0.0 
-4.00064 -1.06423 0.0 
4.1637 1.41296 0.0 
2.03909 0.577378 0.0 
3.97155 -0.451817 0.0 
-1.0713 0.305678 0.0 
1.24518 -0.853569 0.0 
5.30713 0.379083 0.0 
0.993214 0.00283989 0.0 
0.513972 -3.72515 0.0 
4.25372 1.90694 0.0 
0.87556 0.025233 0.0 
0.401296 0.0780688 0.0 
0.44761 -0.0359067 0.0 
-3.06259 -0.640688 0.0 
0.58449 -3.29242 0.0 
4.47137 0.702541 0.0 
-0.523713 -0.272593 0.0 
-0.477755 -0.422453 0.0 
0.570246 -0.533547 0.0 
0.538433 -0.0310055 0.0 
5.2741 -1.01059 0.0 
2.21102 -1.39328 0.0 
1.30783 -0.274121 0.0 
4.18709 -1.48886 0.0 
-1.19726 -3.28581 0.0 
-0.0359698 -1.75399 0.0 
0.617039 -0.0263973 0.0 
5.83653 0.150199 0.0 
5.57946 0.224905 0.0 
0.377841 -0.038928 0.0 
1.38254 1.36675 0.0 
2.58372 -1.06479 0.0 
4.70454 -3.6075 0.0 
0.551438 0.113173 0.0 
0.532912 -0.0384617 0.0 
-0.392031 -0.729994 0.0 
4.38556 1.53498 0.0 
-1.34387 -2.96962 0.0 
4.73748 -0.295427 0.0 
5.13252 -2.84762 0.0 
5.34987 1.08334 0.0 
0.326684 0.0802051 0.0 
1.0681 0.191919 0.0 
0.292684 0.0800176 0.0 
-0.288073 -0.693253 0.0 
0.850052 0.029488 0.0 
7.72674 -2.22661 0.0 
5.73402 0.253504 0.0 
3.27298 3.73283 0.0 
2.31769 -0.889324 0.0 
3.24694 -2.57408 0.0 
-0.795775 -5.8192 0.0 
0.667923 -0.0361302 0.0 
0.835769 0.0314682 0.0 
4.69839 -1.50939 0.0 
4.91709 3.01814 0.0 
0.151849 -0.0409087 0.0 
3.55148 0.264681 0.0 
0.842117 -0.794382 0.0 
2.65591 1.43349 0.0 
0.932811 0.0144733 0.0 
-0.764917 -0.926758 0.0 
3.60734 -0.915315 0.0 
-0.605852 0.649115 0.0 
5.76621 -0.263827 0.0 
3.08877 -0.924843 0.0 
0.899825 -0.00795866 0.0 
6.80384 1.26814 0.0 
3.19847 -0.826277 0.0 
0.0166341 -0.0962489 0.0 
3.983 -1.51439 0.0 
5.81155 1.05052 0.0 
0.403773 -0.0376754 0.0 
4.06583 -0.737319 0.0 
3.85222 3.16404 0.0 
7.27994 -0.917065 0.0 
7.01199 -1.44503 0.0 
5.44634 0.7472 0.0 
5.43495 -0.0201864 0.0 
1.51213 -0.834065 0.0 
1.97076 0.806002 0.0 
0.634487 0.0595385 0.0 
-0.572414 -4.29099 0.0 
1.8826 -0.733417 0.0 
0.759381 -0.180619 0.0 
0.40132 0.0778474 0.0 
0.23454 -0.0430222 0.0 
-0.802406 2.95957 0.0 
0.691963 0.0549995 0.0 
5.47277 -0.740356 0.0 
14.1487 4.94071 0.0 
0.0736498 -1.30758 0.0 
-3.24273 0.882011 0.0 
1.37104 -0.876055 0.0 
-0.483647 -0.194829 0.0 
2.83565 1.06937 0.0 
5.52957 -1.21731 0.0 
0.947149 -0.00912481 0.0 
-0.408161 -0.611461 0.0 
-0.824132 1.91234 0.0 
-0.28194 0.734853 0.0 
-2.58987 -0.112571 0.0 
5.39673 0.0810302 0.0 
0.347037 -1.34491 0.0 
1.28521 2.08402 0.0 
0.220369 -0.0424097 0.0 
-0.490215 0.575937 0.0 
1.64934 -1.3049 0.0 
0.153085 0.0664047 0.0 
-0.251695 -2.55503 0.0 
0.826156 -0.0139773 0.0 
3.35673 0.186652 0.0 
4.62807 -2.39408 0.0 
-1.05781 -1.39579 0.0 
-2.54531 4.21509 0.0 
1.60336 1.51116 0.0 
0.713093 0.0498095 0.0 
0.643534 0.0642145 0.0 
-3.64101 4.81173 0.0 
-1.26922 -3.94313 0.0 
-0.342655 -1.12768 0.0 
3.30326 0.952175 0.0 
5.64264 0.331249 0.0 
1.34559 -0.214642 0.0 
1.60527 0.321358 0.0 
0.328683 -0.0401423 0.0 
3.81728 0.37784 0.0 
4.37562 0.758715 0.0 
5.5831 -1.82905 0.0 
-1.49688 0.101849 0.0 
-1.70027 -0.343758 0.0 
0.937041 0.0136815 0.0 
5.60623 1.42522 0.0 
-1.23169 -0.42816 0.0 
1.69627 2.52442 0.0 
1.36245 -1.5082 0.0 
1.25107 -3.80948 0.0 
2.74679 0.528168 0.0 
5.36614 -1.19177 0.0 
0.605019 1.16677 0.0 
-4.58423 -1.62108 0.0 
-2.02651 2.34708 0.0 
3.99339 3.63024 0.0 
-1.36142 -0.0750085 0.0 
5.19766 -0.482867 0.0 
-3.85513 -1.43107 0.0 
0.966422 0.00919783 0.0 
0.247834 0.0870881 0.0 
-0.465649 -0.817954 0.0 
4.29025 4.26714 0.0 
1.18312 -0.431176 0.0 
9.21986 0.0258833 0.0 
5.39136 -0.625475 0.0 
5.56604 0.611257 0.0 
1.96388 -1.61685 0.0 
0.196106 -0.0423443 0.0 
2.93186 0.364486 0.0 
5.88518 0.822328 0.0 
0.824138 -0.0139123 0.0 
-0.47228 -0.526413 0.0 
0.477118 -0.0338206 0.0 
-4.64673 -2.62107 0.0 
4.10712 -0.887195 0.0 
0.710355 0.0501717 0.0 
1.64936 -0.864917 0.0 
-1.61346 -3.22424 0.0 
0.0092848 0.0284272 0.0 
7.26993 2.53793 0.0 
1.1048 2.83071 0.0 
10.1588 1.30502 0.0 
-0.263385 -0.26391 0.0 
13.7005 7 0.0 
0.52333 0.0703707 0.0 
4.58595 -1.29531 0.0 
5.62067 -0.188463 0.0 
0.799738 -0.0147854 0.0 
11.9625 -2.20661 0.0 
5.40435 0.619553 0.0 
3.28687 -1.45096 0.0 
0.458966 0.0872446 0.0 
5.51568 -0.596029 0.0 
-1.63011 3.37507 0.0 
0.293181 -0.0414659 0.0 
0.865321 -2.71027 0.0 
0.786038 -0.0158333 0.0 
0.0736186 0.0492692 0.0 
4.13993 -2.76136 0.0 
0.881421 -0.0921271 0.0 
0.266317 -3.38104 0.0 
4.88629 -0.852705 0.0 
0.437008 0.076424 0.0 
3.8816 4.12562 0.0 
7.92184 -0.0908268 0.0 
0.176354 -0.0480078 0.0 
-0.662142 0.143724 0.0 
6.26015 0.128606 0.0 
0.915518 -0.00670685 0.0 
3.62021 -1.04763 0.0 
1.34876 0.720027 0.0 
0.982357 -3.49725 0.0 
0.663709 0.0566737 0.0 
5.3066 -0.705713 0.0 
-0.944514 -3.61431 0.0 
1.79294 -0.661223 0.0 
-0.342215 2.27409 0.0 
5.88842 -0.367403 0.0 
0.211839 -0.0420107 0.0 
0.654413 -0.0369233 0.0 
3.68564 6.54289 0.0 
5.00064 1.8515 0.0 
0.69027 0.0546811 0.0 
1.12166 0.441142 0.0 
7.31715 -3.60167 0.0 
2.79958 1.64327 0.0 
0.433465 0.0764782 0.0 
0.584196 0.0652607 0.0 
0.0636322 -0.695974 0.0 
-1.81416 1.63551 0.0 
0.74075 0.0465749 0.0 
2.69342 -1.49048 0.0 
4.86008 -1.00044 0.0 
0.822907 -0.0142337 0.0 
-0.164664 0.307939 0.0 
4.48127 5.51069 0.0 
4.4895 -4.79993 0.0 
5.37438 1.55243 0.0 
0.123991 1.28664 0.0 
6.41782 -0.499678 0.0 
3.16721 -0.70129 0.0 
1.99155 -0.729552 0.0 
4.69954 4.16905 0.0 
-1.91695 -2.36563 0.0 
8.09216 1.16816 0.0 
0.242046 0.0802658 0.0 
2.34355 2.47663 0.0 
2.72841 -0.285972 0.0 
13.5916 6.05949 0.0 
1.64671 4.40597 0.0 
3.03209 1.84093 0.0 
-0.498111 0.662759 0.0 
0.765551 -2.10462 0.0 
5.25655 0.61914 0.0 
6.04759 -2.75505 0.0 
1.12471 -0.237361 0.0 
6.40695 -2.14103 0.0 
4.37139 0.883681 0.0 
0.240004 -0.042139 0.0 
-4.55867 -4.42627 0.0 
-1.09286 3.96435 0.0 
-1.07351 0.572111 0.0 
3.73338 -0.828021 0.0 
-0.766762 -0.403459 0.0 
0.402752 -1.68281 0.0 
0.925255 0.0164317 0.0 
0.88786 -0.943606 0.0 
0.505244 -0.025873 0.0 
-0.299243 0.0389379 0.0 
3.36416 0.723434 0.0 
0.636773 1.7916 0.0 
0.0435288 1.09333 0.0 
0.74756 2.65039 0.0 
5.12608 -1.02106 0.0 
3.05399 0.794214 0.0 
3.3685 -2.29577 0.0 
9.40833 4.18552 0.0 
0.726496 1.10014 0.0 
-1.43587 -0.265452 0.0 
1.53809 -0.965095 0.0 
3.65342 -1.2467 0.0 
3.58193 2.86195 0.0 
1.58453 1.05649 0.0 
0.69113 -0.0216886 0.0 
4.67304 -0.737386 0.0 
2.403 -2.53676 0.0 
-0.883615 -1.03632 0.0 
0.570985 0.067201 0.0 
4.5489 1.01634 0.0 
1.30188 0.95494 0.0 
4.78484 -2.98767 0.0 
0.647276 3.74647 0.0 
1.64058 -1.98991 0.0 
5.60464 1.66025 0.0 
-2.46641 -2.76999 0.0 
0.0236771 0.0292808 0.0 
1.83737 -2.85625 0.0 
0.712397 -0.0207427 0.0 
-0.929233 -3.15638 0.0 
5.62429 -0.0217768 0.0 
0.696715 -0.0236006 0.0 
4.31467 0.462465 0.0 
1.90518 -1.00498 0.0 
3.8123 -0.317197 0.0 
-1.40698 0.43063 0.0 
8.12686 0.163945 0.0 
0.0912505 -0.0517404 0.0 
0.360402 0.0788181 0.0 
0.766222 5.08386 0.0 
0.543306 0.227627 0.0 
0.768677 -0.887089 0.0 
13.8069 6.49329 0.0 
3.14545 -0.527242 0.0 
3.00213 0.685174 0.0 
-3.26851 -1.17579 0.0 
0.326091 -0.0407782 0.0 
-0.350969 -1.28117 0.0 
-1.34372 -4.38367 0.0 
-1.47047 0.274883 0.0 
8.69891 -0.824176 0.0 
0.572752 0.0666296 0.0 
3.02391 1.56815 0.0 
0.546825 -0.0304958 0.0 
7.53034 -2.92118 0.0 
0.862614 -3.9233 0.0 
7.46433 -0.686568 0.0 
0.435695 0.0763326 0.0 
-0.291216 -0.600905 0.0 
0.958024 -0.00418663 0.0 
0.996359 0.00209859 0.0 
-3.04054 -1.35802 0.0 
7.86523 -1.29492 0.0 
0.824153 0.0339519 0.0 
-2.0843 -1.39076 0.0 
2.0242 4.23744 0.0 
6.10554 -1.09258 0.0 
0.070474 0.0518922 0.0 
0.253412 0.0852338 0.0 
4.90662 -3.37133 0.0 
5.3389 -1.37998 0.0 
8.18441 -5.4394 0.0 
4.74018 -1.11041 0.0 
-1.45792 -1.69797 0.0 
-0.658439 1.28669 0.0 
-1.47154 1.02941 0.0 
0.548603 -1.30682 0.0 
-4.28372 4.01846 0.0 
0.597388 -0.031556 0.0 
0.976283 3.91053 0.0 
-1.97604 3.44687 0.0 
-0.823498 -1.2495 0.0 
-0.676338 -0.322971 0.0 
0.0194499 -2.00073 0.0 
6.06625 2.2173 0.0 
4.77636 1.32682 0.0 
3.5286 -1.40716 0.0 
2.2348 6.10147 0.0 
4.3501 1.14584 0.0 
-0.374853 0.997283 0.0 
0.331239 -0.0398749 0.0 
2.92416 0.944765 0.0 
-1.08711 -0.79613 0.0 
-2.10643 0.811211 0.0 
10.0853 -2.20029 0.0 
9.19723 -1.4685 0.0 
-3.63493 -2.23583 0.0 
9.13289 -4.40814 0.0 
0.13646 -0.0401233 0.0 
3.73879 -1.49966 0.0 
1.16246 1.31001 0.0 
1.76621 -0.985528 0.0 
0.279409 0.0783782 0.0 
4.49882 0.813878 0.0 
0.0773295 0.0501322 0.0 
-1.7711 -2.7915 0.0 
2.21785 -2.83793 0.0 
1.9729 0.35934 0.0 
6.07917 0.172121 0.0 
-1.06801 -1.19434 0.0 
-0.742511 -0.787541 0.0 
4.55801 -0.996424 0.0 
10.0032 -3.21238 0.0 
4.23955 3.27 0.0 
4.4588 0.213546 0.0 
-3.41169 -1.50587 0.0 
0.374392 0.944982 0.0 
[...]
<PointData>
  <DataArray type = "Float64" Name="VitesseP1" NumberOfComponents="3" format="ascii">
1 0 0.0 
1.00297 0 0.0 
0.997848 0 0.0 
1 0 0.0 
1.00003 -0.000980391 0.0 
1.00628 -0.00602129 0.0 
0.983527 -0.00243612 0.0 
1.00112 -0.000854601 0.0 
1.00682 -0.000996035 0.0 
0.624854 0.0384712 0.0 
1.00098 -0.00113737 0.0 
0.999606 -0.0034448 0.0 
0.0115551 0.000358243 0.0 
0 0 0.0 
0.94536 -0.00154255 0.0 
0.0880424 0.00548428 0.0 
1.00501 -0.00555328 0.0 
1.00161 -0.00200096 0.0 
1.00167 -0.00548305 0.0 
1.00009 -0.000177165 0.0 
0.149936 0.0100802 0.0 
0.999511 0.00133803 0.0 
0.0776938 0.00947276 0.0 
1.00078 -0.00586259 0.0 
1.25679e-08 -4.78246e-10 0.0 
0.998506 -0.00235598 0.0 
3.12995e-08 6.97054e-09 0.0 
0.844919 -0.00389097 0.0 
1.13922 -0.112872 0.0 
0.01827 0.00170828 0.0 
1.00107 -0.000894344 0.0 
1.00156 -0.0012617 0.0 
1.01461 -0.0170625 0.0 
0.982484 0.00841312 0.0 
1.00258 0.00829718 0.0 
0.0132341 0.000625786 0.0 
0.999213 -0.0118716 0.0 
1.00319 0.018756 0.0 
1.00144 -0.00277538 0.0 
1.01652 0.0122512 0.0 
1.00071 -0.00142417 0.0 
1.00482 0.000150108 0.0 
1.00164 -0.00238568 0.0 
0.997252 0.000750499 0.0 
1.00121 -0.00105201 0.0 
1.00099 -0.000626797 0.0 
0.174167 0.0175531 0.0 
0.99824 -0.00404683 0.0 
0.998383 0.00269445 0.0 
1.00091 -0.000469563 0.0 
1.02356 -0.013276 0.0 
0.411459 -0.0405285 0.0 
1.00544 -0.00364887 0.0 
1.00063 -0.003033 0.0 
0.0309419 0.00188613 0.0 
0.999821 0.000429226 0.0 
1.00153 -0.00307159 0.0 
1.00106 -0.010622 0.0 
1.00139 -0.00244592 0.0 
0.993606 0.0092846 0.0 
1.00024 0.00338541 0.0 
1.0012 -0.00176806 0.0 
-3.04448e-09 -6.38418e-10 0.0 
1.00074 -0.000779715 0.0 
1.00159 -0.0027474 0.0 
-0.000841527 0.00015827 0.0 
3.22731e-08 -4.27317e-10 0.0 
0 0 0.0 
0.999184 0.00109547 0.0 
1.0008 -0.000896555 0.0 
1.00162 -0.00286912 0.0 
0.980843 -0.00437857 0.0 
0.986083 -0.0086686 0.0 
1.01716 0.00502644 0.0 
0 0 0.0 
1.00198 -0.0015851 0.0 
1 -0.000991002 0.0 
0.987458 0.00641247 0.0 
1.00153 -0.00165215 0.0 
1.00006 -0.000737105 0.0 
1.00095 -0.00266508 0.0 
0 0 0.0 
0.982908 -0.00173962 0.0 
1.01371 -0.000416733 0.0 
3.44017e-08 1.57726e-09 0.0 
1.00992 -0.00803502 0.0 
0.99987 -0.00178694 0.0 
1.00175 -0.000795814 0.0 
1.13231 -0.0689832 0.0 
0.388731 0.0202778 0.0 
0.994739 -0.00938557 0.0 
1.00154 -0.00283074 0.0 
0.999861 -0.000786405 0.0 
1.00171 -0.00205623 0.0 
1.00196 -0.000994928 0.0 
1.00142 -0.00222823 0.0 
0.116058 0.00046461 0.0 
0.99684 -0.0611658 0.0 
0.148775 0.00371023 0.0 
0.995487 -0.0117995 0.0 
-1.0405e-09 1.63889e-11 0.0 
1.00275 -0.000898969 0.0 
1.00684 -0.00268012 0.0 
1.00156 -0.00166421 0.0 
0.999172 -0.00170192 0.0 
1.00129 -0.00110584 0.0 
1.00036 -0.000210322 0.0 
0.595387 0.0344842 0.0 
0 0 0.0 
1.00179 -0.00154032 0.0 
1.00082 -0.00177493 0.0 
0 0 0.0 
1.00101 -0.00389457 0.0 
1.00549 0.0045155 0.0 
1.003 -0.00550024 0.0 
0 0 0.0 
0.995329 -0.00378269 0.0 
1.00107 -0.00219096 0.0 
0.999145 0.019202 0.0 
1.00525 -0.00431365 0.0 
1.00049 -0.00223 0.0 
0 0 0.0 
1.00208 -0.00164738 0.0 
1.00058 -0.00236204 0.0 
0.994143 -0.169867 0.0 
1.00142 -0.00166511 0.0 
1.00087 -0.00223765 0.0 
0 0 0.0 
1.00136 -0.0021786 0.0 
1.00147 -0.00205377 0.0 
1.00394 -0.000594874 0.0 
1.00239 -0.00141916 0.0 
1.00137 -0.0022675 0.0 
0.906102 -0.00165602 0.0 
0.998416 0.00173219 0.0 
1.00318 -0.0105797 0.0 
0 0 0.0 
1.00039 -0.000560729 0.0 
0.997577 -0.000635625 0.0 
1.0163 0.0358411 0.0 
0 0 0.0 
0.0478417 0.000486302 0.0 
1.00355 0.00263303 0.0 
0.0613733 -0.0076014 0.0 
1.00211 -0.00174321 0.0 
0.998277 -0.000225184 0.0 
1.00215 -0.00426015 0.0 
0.999776 0.00198381 0.0 
0.999364 0.00246947 0.0 
0.976317 -0.00283472 0.0 
1.00226 -0.00564349 0.0 
1.00227 -0.00124634 0.0 
0.161561 0.0106833 0.0 
0.991819 -0.0103412 0.0 
1.00489 0.00589437 0.0 
1.009 0.0248703 0.0 
0.998651 0.00216972 0.0 
0.95947 -0.00697935 0.0 
1.00304 -0.00263847 0.0 
1.00772 -0.00309736 0.0 
7.98557e-09 -1.78999e-10 0.0 
0.998764 0.0237558 0.0 
1.00003 9.46485e-05 0.0 
0 0 0.0 
1.00043 -0.00142779 0.0 
0.0252947 0.00192653 0.0 
1.00014 -0.00416307 0.0 
1.0018 -0.00120453 0.0 
0.997778 -0.0019197 0.0 
1.00071 0.00107373 0.0 
1.00772 -0.00697446 0.0 
0 0 0.0 
0.253033 -0.0273152 0.0 
1.00019 0.000481944 0.0 
1.00017 -0.000539282 0.0 
0.999071 -0.00581327 0.0 
1.00181 -0.00454964 0.0 
0.999734 0.000321299 0.0 
0.98527 0.00400281 0.0 
0.996743 -0.0178125 0.0 
0 0 0.0 
1.00121 -0.00355771 0.0 
1.00161 -0.00296722 0.0 
1.00205 -0.00113999 0.0 
0.995608 0.00506668 0.0 
0.996205 0.00237879 0.0 
0 0 0.0 
1.00103 -0.00203133 0.0 
0.993694 0.00144501 0.0 
1.00524 -0.00272957 0.0 
1.00103 1.15756e-05 0.0 
1.00092 -0.000717384 0.0 
1.0009 -0.00614879 0.0 
1.00208 -0.00170353 0.0 
1.02138 -0.00153891 0.0 
0.999981 0.000103368 0.0 
1.00144 0.0032946 0.0 
1.00106 -0.00167806 0.0 
0.99418 0.00422404 0.0 
1.00197 -0.00155722 0.0 
0.99979 0.000331074 0.0 
-0.0126138 0.00255856 0.0 
1.09454 0.0825312 0.0 
0.995495 -0.00750661 0.0 
1.00063 -0.00123677 0.0 
0.994782 0.0100277 0.0 
0.974184 -0.000135301 0.0 
1.00272 -0.00226877 0.0 
1.00245 -0.00193417 0.0 
1.00047 -0.000686224 0.0 
2.00523e-08 -9.77066e-10 0.0 
1.00056 -0.00536947 0.0 
1.0025 -0.00149507 0.0 
0.0169704 0.00111223 0.0 
0.989166 -0.00903933 0.0 
0 0 0.0 
0.999996 1.63519e-05 0.0 
1.00146 -0.00205281 0.0 
0 0 0.0 
0.9984 0.000773463 0.0 
0.999929 -0.000620721 0.0 
0.690649 0.504821 0.0 
1.00027 -0.00111766 0.0 
1.00545 -0.00108062 0.0 
1.00299 -0.000122409 0.0 
0.973141 -0.0215273 0.0 
0.998013 0 0.0 
0 0 0.0 
1.00171 -0.00166042 0.0 
0.993745 -0.000778474 0.0 
0 0 0.0 
1.00346 -0.000639625 0.0 
1.00147 -0.00195019 0.0 
1.0009 -0.00171248 0.0 
0.857906 -0.0387896 0.0 
1.00158 -0.00108563 0.0 
1.00182 0.00202146 0.0 
1.79183e-08 8.21812e-10 0.0 
1.00102 -0.000993414 0.0 
0 0 0.0 
6.97911e-08 2.11059e-08 0.0 
1.00163 -0.00108372 0.0 
1.00069 0.0467212 0.0 
1.00068 -0.000901523 0.0 
1.00188 -0.00177378 0.0 
0 0 0.0 
1.00093 -0.00135983 0.0 
0.971097 -0.000370425 0.0 
0.696292 -0.0260705 0.0 
0.98442 0.0132022 0.0 
0.972968 -0.00119563 0.0 
0 0 0.0 
1.00106 -0.0020662 0.0 
1.00954 -0.0189839 0.0 
1.00088 -0.000802858 0.0 
0.00475306 -0.000574479 0.0 
1.00158 -0.00153074 0.0 
1.00022 -0.000708935 0.0 
0.996787 -0.000311184 0.0 
1.00631 0.00380434 0.0 
1.01177 -0.00555006 0.0 
0 0 0.0 
0.599738 0.0343972 0.0 
1.00037 -0.000175268 0.0 
1.00131 -0.0022305 0.0 
0.0425654 -0.0052173 0.0 
1.01194 -0.0353913 0.0 
1.00233 -0.000623497 0.0 
1.00311 -0.00476872 0.0 
0 0 0.0 
8.1135e-09 -5.3334e-10 0.0 
1.00576 -0.0133991 0.0 
1.0013 0.00476858 0.0 
0.00307873 -0.00041293 0.0 
1.00048 -0.00143177 0.0 
1.00188 -0.00175242 0.0 
0.0268759 0.00160597 0.0 
0.989892 0.0600969 0.0 
1.00019 -0.00060849 0.0 
1.00159 -0.000497562 0.0 
1.00136 -0.00208709 0.0 
1.01599 0.00759893 0.0 
1.0112 -0.00511452 0.0 
1.00038 -0.00254744 0.0 
0.997781 -0.00113365 0.0 
1.00044 -0.00123086 0.0 
0.999432 -0.000512336 0.0 
1.001 -0.00149908 0.0 
0.553647 0.0405257 0.0 
1.00376 -0.00326641 0.0 
0.999308 -0.00354709 0.0 
0.998094 -9.7669e-05 0.0 
1.00219 -0.000657849 0.0 
1.00283 -0.00409493 0.0 
1.00077 0.0217157 0.0 
1.00134 -0.00112292 0.0 
1.00122 -0.00248095 0.0 
1.00224 -0.000917714 0.0 
0.986246 0.0173351 0.0 
1.00245 -0.000950496 0.0 
1.00162 -0.00297786 0.0 
0 0 0.0 
1 -2.83038e-05 0.0 
1.00198 0.00135349 0.0 
0.996798 0.0107042 0.0 
1.00116 -0.00223548 0.0 
0.989047 -0.00151649 0.0 
1.002 -0.00193763 0.0 
-2.70341e-08 4.28608e-09 0.0 
1.00414 0.00264451 0.0 
0 0 0.0 
0.952677 0.0176783 0.0 
1.00152 -0.00444509 0.0 
1.01177 -0.000282119 0.0 
1.01832 0.0122933 0.0 
1.00634 -0.000270735 0.0 
1.00182 -0.00161149 0.0 
1.00161 -0.00519426 0.0 
1.00125 -0.00121842 0.0 
0.999064 -0.000501284 0.0 
1.02159 -0.00496984 0.0 
0.994904 0.00278149 0.0 
0.999119 0.00118397 0.0 
1.00111 -0.00188896 0.0 
1.00181 -0.00242095 0.0 
1.0079 -0.0113072 0.0 
0 0 0.0 
1.00171 -0.00190442 0.0 
1.00104 -0.000949592 0.0 
0.99626 -0.00292946 0.0 
0.0282922 -0.00220723 0.0 
1.00156 -0.0027834 0.0 
1.01217 -0.0140566 0.0 
1.00183 -0.000970889 0.0 
1.00336 6.84596e-05 0.0 
1.00088 -0.000645583 0.0 
1.00126 -0.00182568 0.0 
0.999706 -0.000275292 0.0 
5.75987e-08 2.91069e-08 0.0 
1.00107 -0.0008444 0.0 
2.5106e-08 1.90061e-09 0.0 
1.00012 -0.00088065 0.0 
0.918537 0.000277457 0.0 
0.0853015 0.00560702 0.0 
1.00147 -0.00298748 0.0 
0.998965 -0.00042605 0.0 
1.00126 -0.00265623 0.0 
0.996547 0.007064 0.0 
0.975209 -0.00150194 0.0 
1.14123 -0.155103 0.0 
1.22507e-08 5.54963e-10 0.0 
1.00172 -3.83856e-05 0.0 
1.1075 -0.0388843 0.0 
1.00597 0.0024651 0.0 
0.998045 -5.1511e-05 0.0 
1.00032 -0.00282095 0.0 
1.00146 -0.00534208 0.0 
0.999462 0.000588289 0.0 
0.0124968 0.000616858 0.0 
0.999297 -0.00460684 0.0 
1.00021 -0.00043547 0.0 
0.996157 0.00600297 0.0 
1.00931 -0.00149894 0.0 
0.00860437 -0.000991271 0.0 
1.0026 -0.00453592 0.0 
0 0 0.0 
1.00248 -0.000674555 0.0 
1.00081 -0.000703994 0.0 
1.0065 -0.00244201 0.0 
0 0 0.0 
0.993519 -0.0137589 0.0 
0 0 0.0 
0 0 0.0 
0.999329 0.000486183 0.0 
1.00206 -0.00110571 0.0 
0.000589215 -0.000103883 0.0 
0.99848 8.314e-05 0.0 
1.00213 -0.00096328 0.0 
1.00193 -0.00120878 0.0 
0.797497 0.251802 0.0 
0.959786 0.0669741 0.0 
1.00182 -0.000850234 0.0 
1.00208 -0.00147202 0.0 
1.00227 -0.000243519 0.0 
1.00178 -0.00167913 0.0 
0.998558 -0.00100666 0.0 
1.00548 0.0106702 0.0 
0.999918 0.00712472 0.0 
1.00343 -0.00149765 0.0 
1.00004 0.000393913 0.0 
0.188494 0.0109419 0.0 
1.00305 -0.000297376 0.0 
1.00142 0.00187983 0.0 
0.997381 -0.00291156 0.0 
0.98612 -0.00176006 0.0 
1.00083 -0.00205615 0.0 
1.00072 -0.001576 0.0 
1.00136 -0.00256995 0.0 
1.00107 -0.00176427 0.0 
1.00098 -0.000246006 0.0 
1.0015 -0.00297017 0.0 
1.00876 0.0163826 0.0 
0 0 0.0 
1.00198 -0.00548976 0.0 
0.994752 -0.00122527 0.0 
0.999196 0.00443773 0.0 
1.00262 -0.000416547 0.0 
1.0004 -0.000895383 0.0 
0.999822 8.3347e-05 0.0 
1.00257 -0.000383757 0.0 
0 0 0.0 
1.00126 -0.00169959 0.0 
1.0127 -0.00785184 0.0 
0.998878 7.99603e-05 0.0 
0 0 0.0 
1.00163 -0.00285182 0.0 
0 0 0.0 
0.999698 -0.000600634 0.0 
1.0011 -0.000873031 0.0 
0.998677 -0.0111695 0.0 
0.97934 -0.00684872 0.0 
0.996955 -0.00194345 0.0 
0.994008 -0.00410107 0.0 
1.00173 -0.00182011 0.0 
1.00271 -0.000397237 0.0 
1.00112 -0.00186078 0.0 
1.00096 -0.00278664 0.0 
0.999603 0.00036481 0.0 
1.02782 0.00564213 0.0 
0 0 0.0 
1.00366 -0.000342203 0.0 
1.02224 0.0159725 0.0 
0.985212 0.000922323 0.0 
0.998563 0.0134039 0.0 
1.00015 -0.0012533 0.0 
0.0114896 -0.00167664 0.0 
1.00156 -0.00171858 0.0 
1.00809 -0.00868475 0.0 
1.00099 0.00168242 0.0 
0.995678 -0.000479676 0.0 
4.31323e-08 8.27251e-10 0.0 
1.00296 -0.000244629 0.0 
1.00156 -0.00263242 0.0 
0 0 0.0 
1.00013 -0.00179661 0.0 
1.00285 0.00632014 0.0 
2.61736e-07 -9.20884e-09 0.0 
1.0002 -0.00233755 0.0 
1.00233 -0.00283735 0.0 
1.00049 -0.00146953 0.0 
0.018399 0.000494033 0.0 
1.00793 0.00153234 0.0 
1.00211 -0.000263477 0.0 
1.00259 0.00331784 0.0 
1.01458 0.00161916 0.0 
1.003 -0.000154432 0.0 
1.00027 -0.00105826 0.0 
1.00248 -0.00021735 0.0 
1.00024 0.00404549 0.0 
1.00121 -0.00209022 0.0 
0.108158 0.0203375 0.0 
1.00099 -0.00106892 0.0 
0.283299 0.0217379 0.0 
1.00162 -0.000857748 0.0 
1.00014 0.00118992 0.0 
1.00017 0.00279944 0.0 
1.00127 -0.000450754 0.0 
1.00257 -0.000654066 0.0 
1.00005 0.00192824 0.0 
0.997191 0.00462421 0.0 
1.00192 -0.000238348 0.0 
1.02507 -0.00775866 0.0 
1.0001 -0.000785031 0.0 
1.00712 -6.65291e-05 0.0 
0 0 0.0 
1.00126 -0.00221308 0.0 
1.00148 -0.00422759 0.0 
1.00006 0.000416798 0.0 
1.00555 0.0220493 0.0 
1.00032 -0.00593278 0.0 
0.998975 -0.000304664 0.0 
1.00208 -0.000765417 0.0 
0.947812 -0.000160866 0.0 
0.963252 0.00198535 0.0 
8.82398e-09 1.7817e-10 0.0 
1.00284 0.00218648 0.0 
1.00153 -0.00261422 0.0 
1.0031 -0.00166387 0.0 
1.00422 -0.000873515 0.0 
0.995911 0.00377958 0.0 
0 0 0.0 
0.996804 -0.000475125 0.0 
0.999896 0.000499852 0.0 
1.002 -0.00281762 0.0 
0 0 0.0 
0.999978 6.92866e-05 0.0 
1.00059 -0.000137894 0.0 
1.00201 -0.000911335 0.0 
0.999037 -0.000888705 0.0 
1.00119 -0.000737803 0.0 
1.00644 -0.0047044 0.0 
0.930855 0.00281151 0.0 
0.999962 -0.0028691 0.0 
1.0025 -0.000435914 0.0 
1.00194 -0.00325147 0.0 
0.998044 -7.80978e-05 0.0 
1.00105 -0.000850844 0.0 
1.00144 -0.00156581 0.0 
1.00001 0.00447493 0.0 
1.00232 -0.00405027 0.0 
0.998338 -0.000163287 0.0 
1.00167 -0.000968953 0.0 
1.0015 -0.00195115 0.0 
1.00009 0.000345897 0.0 
0.0907854 -0.00562258 0.0 
1.03509 -0.0446444 0.0 
1.00201 -0.00030906 0.0 
0.999892 0.00169802 0.0 
0.144461 -0.00822069 0.0 
1.00143 -0.00252457 0.0 
0.565966 -0.0549564 0.0 
1.00275 -0.00320882 0.0 
1.00004 -0.000147617 0.0 
0.997794 0.00332141 0.0 
1.00068 -0.00108891 0.0 
1.00255 -0.00410237 0.0 
0.00961575 0.000379168 0.0 
1.00062 -0.00027732 0.0 
1.00039 -0.00175056 0.0 
1.0023 -0.000882373 0.0 
0.999962 -0.00211358 0.0 
1.00207 -0.00691474 0.0 
1.00137 -0.00220054 0.0 
1.00828 -0.0012369 0.0 
1.00154 -0.00240321 0.0 
0.999586 -0.0153724 0.0 
1.00247 0.00175897 0.0 
0.996472 0.000356637 0.0 
1.00071 0.00132916 0.0 
6.47321e-09 5.03941e-10 0.0 
0.99799 -5.04686e-05 0.0 
8.19419e-08 3.83101e-08 0.0 
1.00027 -0.00121722 0.0 
0.992025 0.00499937 0.0 
1.00224 -0.00110855 0.0 
1.00234 -0.00116988 0.0 
1.00084 -0.00114866 0.0 
1.00224 -0.0105042 0.0 
0 0 0.0 
0.998529 -0.00024925 0.0 
0.994303 -0.000736513 0.0 
0.998512 -2.16008e-05 0.0 
0.0904225 0.00134699 0.0 
0.0222911 0.00109941 0.0 
0 0 0.0 
1.00337 -0.000414443 0.0 
0.999806 -0.000863888 0.0 
0.999881 -0.000492626 0.0 
1.00127 -0.00112953 0.0 
1.00363 -0.00214686 0.0 
1.00053 -0.00204985 0.0 
0.99785 3.71969e-05 0.0 
1.00056 -0.000888852 0.0 
0.999856 -0.00101637 0.0 
0.0523555 -0.00723687 0.0 
0.999256 -0.0002087 0.0 
1.00728 -0.000695568 0.0 
1.0134 0.0048348 0.0 
1.00265 -0.000572914 0.0 
0.998974 -5.20321e-05 0.0 
1.00143 -0.00271812 0.0 
1.00221 -0.00351872 0.0 
1.00148 -0.00257335 0.0 
1.00364 -0.000456422 0.0 
1.0002 -0.000813695 0.0 
1.00065 -0.00588338 0.0 
1.003 -0.00164256 0.0 
1.00197 -0.00107736 0.0 
1.00147 -0.000983276 0.0 
1.00074 -0.000945152 0.0 
0.985823 -0.00561425 0.0 
1.00014 -0.00759743 0.0 
1.00466 -0.00092349 0.0 
1.00053 -0.00771785 0.0 
1.00426 -0.00715519 0.0 
1.00236 0.00406751 0.0 
1.00507 0.0156292 0.0 
1.01779 0.000333977 0.0 
1.0019 -0.00457802 0.0 
0.486508 0.186755 0.0 
1.00442 0.00390938 0.0 
1.00042 -0.000795525 0.0 
0.999169 -0.00751184 0.0 
1.0019 -0.00052267 0.0 
1.00001 0.000496301 0.0 
1.00199 -0.0022902 0.0 
1.00148 -0.000524307 0.0 
1.00164 -0.00109822 0.0 
1.00222 0.00260826 0.0 
1.00244 -0.000792616 0.0 
2.62215e-08 -3.31277e-09 0.0 
0.999364 -0.00227673 0.0 
0.999469 -0.000620434 0.0 
1.00349 -0.0070266 0.0 
0.999772 -0.00040005 0.0 
1.00058 0.000149396 0.0 
1.00306 -0.00117139 0.0 
1.00417 -0.000569856 0.0 
1.00199 -0.00317593 0.0 
1.0018 -0.00413614 0.0 
0.998331 -0.00150726 0.0 
0.999934 0.00112603 0.0 
1.00159 -0.00469763 0.0 
1.00484 0.000926769 0.0 
1.00069 -0.00169463 0.0 
1.00096 -0.00199501 0.0 
0.999539 -0.0012275 0.0 
1.00044 0.00602831 0.0 
1.00241 -0.000943896 0.0 
0 0 0.0 
0.995314 -0.000237886 0.0 
0.999704 -0.000836892 0.0 
1.00159 -0.00299182 0.0 
4.98102e-09 -8.9002e-11 0.0 
1.00043 -0.000363629 0.0 
1.00065 -0.0016478 0.0 
0.999064 -0.00152048 0.0 
1.00089 -0.00213467 0.0 
0.999034 -0.00715401 0.0 
1.00126 -0.000746184 0.0 
1.00018 0.000585966 0.0 
0 0 0.0 
1.00234 -0.00142031 0.0 
1.00029 -0.00232856 0.0 
1.00094 -0.00147895 0.0 
1.00593 -0.00230058 0.0 
1.00363 -0.00169638 0.0 
0.999922 0.000237339 0.0 
1.00091 -0.000308696 0.0 
1.0014 -0.00330307 0.0 
1.00129 -0.00351685 0.0 
1.00751 -0.0331986 0.0 
0.999421 -0.00066263 0.0 
1.00093 -0.0022819 0.0 
1.00261 -6.79215e-05 0.0 
1.0012 -0.000111479 0.0 
0.926082 -0.00537576 0.0 
0 0 0.0 
1.00151 0.000741775 0.0 
0.999212 0.00187992 0.0 
0.989086 0.00284019 0.0 
1.00296 0.000359285 0.0 
1.00159 -0.00244264 0.0 
1.00175 -0.00145939 0.0 
0.999685 0.000142747 0.0 
1.0022 -0.000114482 0.0 
0.999294 0.00388899 0.0 
1.0017 -0.00157483 0.0 
0.999754 -0.000462377 0.0 
1.00446 -0.00380104 0.0 
0.99953 -0.000320716 0.0 
1.00159 -0.000415203 0.0 
0.0141066 0.000828121 0.0 
1.01448 -0.00369281 0.0 
1.00878 -0.00460136 0.0 
1.01306 -0.00836726 0.0 
1.00173 -0.000172243 0.0 
1.00418 -0.0081151 0.0 
1.00158 -0.00157486 0.0 
0 0 0.0 
1.00099 -0.00119997 0.0 
0.732708 -0.135768 0.0 
1.0416 -0.0462634 0.0 
0.997451 0.00577385 0.0 
1.00002 -3.92779e-05 0.0 
0.997737 -0.00510779 0.0 
0.990211 0.000432396 0.0 
1.00085 0.00976837 0.0 
1.00261 -0.000509896 0.0 
0.326857 0.0333008 0.0 
1.00149 0.00403192 0.0 
1.00158 -0.0011852 0.0 
1.00166 -0.00156142 0.0 
1.00153 -0.00267223 0.0 
0 0 0.0 
0.999268 -0.000311196 0.0 
1.00109 -0.000701408 0.0 
0.999341 0.00591862 0.0 
0.999724 -0.00231289 0.0 
1.00133 -0.000706985 0.0 
1.00008 -0.00144942 0.0 
1.00254 -0.00344315 0.0 
0.995544 -0.0129815 0.0 
0.986678 -0.000326032 0.0 
0.99871 0.00311801 0.0 
0.999609 -0.000530449 0.0 
1.00099 -0.000538692 0.0 
1.00087 -0.0010331 0.0 
1.00154 0.00106756 0.0 
1.05024 -0.223231 0.0 
0.997221 -0.00661992 0.0 
0.998512 0.00572549 0.0 
1.00001 0.000339032 0.0 
1.00331 -0.00179413 0.0 
1.00192 0.00288327 0.0 
1.00186 -0.000392474 0.0 
0.999943 -0.000752917 0.0 
1.00688 -0.000615253 0.0 
1.00426 -0.0267659 0.0 
1.00183 -0.00144246 0.0 
1.00137 -0.000934828 0.0 
1.00005 -0.00055609 0.0 
0.991029 0.00132368 0.0 
1.00266 -0.000601294 0.0 
1.00072 -0.00035694 0.0 
0.973679 -0.000578088 0.0 
1.00137 -0.000914932 0.0 
0.999125 -0.00257914 0.0 
1.00168 -0.000707935 0.0 
1.00012 -0.00120596 0.0 
1.00271 -0.000233787 0.0 
1.00082 -0.00300179 0.0 
1.00051 -0.000960639 0.0 
1.00067 0.000537432 0.0 
1.00081 -0.00043162 0.0 
1.00043 -0.000994634 0.0 
0.999872 0.00163379 0.0 
1.00464 -0.000293057 0.0 
1.00249 -3.10523e-05 0.0 
1.00139 -0.000487141 0.0 
1.00104 -0.000763472 0.0 
0.998403 0.00172795 0.0 
1.00324 -0.000781412 0.0 
1.00078 -2.60785e-06 0.0 
0.999988 -0.000148126 0.0 
1.00106 -0.00061016 0.0 
1.00054 -0.000691476 0.0 
0.999996 -2.45843e-05 0.0 
1.00016 -0.00119977 0.0 
1.00018 -0.000335288 0.0 
1.00003 -4.78471e-05 0.0 
1.00081 -0.00119374 0.0 
0.998126 -4.52114e-05 0.0 
0 0 0.0 
1.00111 -0.0020954 0.0 
0.999307 0.00241962 0.0 
0.999586 -0.000407959 0.0 
0.99925 -0.000631928 0.0 
1.00222 -0.00146752 0.0 
1.0001 -0.000109687 0.0 
1.00211 -0.00192529 0.0 
1.00193 -0.000818794 0.0 
0 0 0.0 
1.00849 -0.000958656 0.0 
1.05035 -0.0724171 0.0 
1.00167 -0.00124713 0.0 
1.00107 -0.000824808 0.0 
0.998572 -0.000228662 0.0 
1.00001 0.000147051 0.0 
1.00013 -0.0108183 0.0 
1.00201 -0.00350476 0.0 
1.00062 -0.000385198 0.0 
0 0 0.0 
1.00139 -0.0010286 0.0 
0.99989 -0.000786726 0.0 
1.00301 -0.000144653 0.0 
1.00261 -5.54493e-05 0.0 
1.0072 -0.000136111 0.0 
1.0011 -0.000445633 0.0 
1.00021 -0.00293476 0.0 
0.997605 0.0549788 0.0 
1.00221 -0.000635144 0.0 
1.0011 -0.00159458 0.0 
1.00168 -0.00296443 0.0 
1.00172 0.00508754 0.0 
1.00206 -0.00137647 0.0 
1.00424 0.00205206 0.0 
1.00512 0.000478993 0.0 
0.999259 -0.000262111 0.0 
1.00185 -0.00162593 0.0 
1.00264 -0.000207176 0.0 
1.00077 -0.00231662 0.0 
1.00104 -0.000348844 0.0 
1.00052 -7.41851e-05 0.0 
0.99976 -0.00076267 0.0 
1.00069 0.000771871 0.0 
1.00184 0.0327372 0.0 
1.00142 0.000477964 0.0 
-2.37298e-09 2.58493e-11 0.0 
1.00048 0.0017858 0.0 
1.00083 -0.0018518 0.0 
1.00368 0.00568103 0.0 
1.00593 -0.00260531 0.0 
0.999996 -0.000462558 0.0 
1.00026 -0.00126091 0.0 
1.00018 -0.00298411 0.0 
0.999039 -0.00214445 0.0 
1.00286 -0.000579421 0.0 
0.999601 -0.000542619 0.0 
0.994497 0.00329358 0.0 
0.99959 -0.00351282 0.0 
0.999467 0.00027195 0.0 
1.00159 -0.00294059 0.0 
0.966493 0.000337081 0.0 
1.00154 -0.00169665 0.0 
1.00076 -0.00148265 0.0 
1.00159 -0.000964199 0.0 
1.00091 -0.000991899 0.0 
0.999185 -0.000487618 0.0 
1.00159 -0.00422635 0.0 
0.999982 0.00136844 0.0 
0.998664 -0.000286607 0.0 
1.00366 -0.00034114 0.0 
0.180677 -0.0164026 0.0 
1.00243 -0.000710708 0.0 
1.00138 -0.00014982 0.0 
0.997314 0.00142716 0.0 
1.00009 -0.000871186 0.0 
0.998838 -0.000119362 0.0 
1.00369 -0.000946528 0.0 
1.00007 -0.000366418 0.0 
1.00069 -0.00166269 0.0 