<VTKFile type="UnstructuredGrid" version="0.1" byte_order="LittleEndian">
  <UnstructuredGrid>
    <Piece NumberOfPoints="23679" NumberOfCells="47236">
      <Points>
        <DataArray type = "Float64" NumberOfComponents="3" format="ascii">
-5 -7 0.0 
15.5 -7 0.0 
15.5 7 0.0 
-5 7 0.0 
7.63511 2.91639 0.0 
1.87049 1.67084 0.0 
-0.605974 -0.287769 0.0 
2.37337 -3.10656 0.0 
0.929906 2.48659 0.0 
0.824948 -0.0289232 0.0 
0.579762 -2.6174 0.0 
2.75639 -0.320238 0.0 
0.600589 -0.0279367 0.0 
0.809974 0.0358912 0.0 
4.52511 -0.0925724 0.0 
0.692729 -0.023898 0.0 
2.14598 1.71184 0.0 
4.47114 -0.725108 0.0 
2.94972 0.812693 0.0 
-2.51884 -5.20772 0.0 
0.933054 -0.00978829 0.0 
-3.39004 -0.0550254 0.0 
0.209319 0.0741243 0.0 
-0.14562 -1.1416 0.0 
0.16355 -0.0415655 0.0 
4.37129 -0.146188 0.0 
0.125896 0.0617342 0.0 
2.89507 -0.00321849 0.0 
0.117818 -0.0547525 0.0 
0.74577 -0.0190427 0.0 
1.20907 -2.59566 0.0 
7.05945 1.36908 0.0 
1.18414 0.837326 0.0 
-0.664239 0.00933663 0.0 
0.988285 -0.635056 0.0 
0.79931 -0.0154644 0.0 
-0.169857 -0.752454 0.0 
-0.535193 0.781979 0.0 
4.50646 0.336854 0.0 
0.675201 -0.447934 0.0 
4.33956 3.92927 0.0 
7.20401 -0.547152 0.0 
5.06202 0.761268 0.0 
-1.83764 -0.830466 0.0 
2.97447 -2.59497 0.0 
1.77447 -4.2029 0.0 
0.203756 0.0741702 0.0 
2.3905 -0.208726 0.0 
-2.38226 0.0491773 0.0 
1.57579 -4.90006 0.0 
0.892623 0.876713 0.0 
0.619187 0.0692661 0.0 
1.81524 2.22933 0.0 
3.20393 -0.375619 0.0 
0.560088 -0.0307549 0.0 
-4.00064 -1.06423 0.0 
4.1637 1.41296 0.0 
2.03909 0.577378 0.0 
3.97155 -0.451817 0.0 
-1.0713 0.305678 0.0 
1.24518 -0.853569 0.0 
5.30713 0.379083 0.0 
0.993214 0.00283989 0.0 
0.513972 -3.72515 0.0 
4.25372 1.90694 0.0 
0.87556 0.025233 0.0 
0.401296 0.0780688 0.0 
0.44761 -0.0359067 0.0 
-3.06259 -0.640688 0.0 
0.58449 -3.29242 0.0 
4.47137 0.702541 0.0 
-0.523713 -0.272593 0.0 
-0.477755 -0.422453 0.0 
0.570246 -0.533547 0.0 
0.538433 -0.0310055 0.0 
5.2741 -1.01059 0.0 
2.21102 -1.39328 0.0 
1.30783 -0.274121 0.0 
4.18709 -1.48886 0.0 
-1.19726 -3.28581 0.0 
-0.0359698 -1.75399 0.0 
0.617039 -0.0263973 0.0 
5.83653 0.150199 0.0 
5.57946 0.224905 0.0 
0.377841 -0.038928 0.0 
1.38254 1.36675 0.0 
2.58372 -1.06479 0.0 
4.70454 -3.6075 0.0 
0.551438 0.113173 0.0 
0.532912 -0.0384617 0.0 
-0.392031 -0.729994 0.0 
4.38556 1.53498 0.0 
-1.34387 -2.96962 0.0 
4.73748 -0.295427 0.0 
5.13252 -2.84762 0.0 
5.34987 1.08334 0.0 
0.326684 0.0802051 0.0 
1.0681 0.191919 0.0 
0.292684 0.0800176 0.0 
-0.288073 -0.693253 0.0 
0.850052 0.029488 0.0 
7.72674 -2.22661 0.0 
5.73402 0.253504 0.0 
3.27298 3.73283 0.0 
2.31769 -0.889324 0.0 
3.24694 -2.57408 0.0 
-0.795775 -5.8192 0.0 
0.667923 -0.0361302 0.0 
0.835769 0.0314682 0.0 
4.69839 -1.50939 0.0 
4.91709 3.01814 0.0 
0.151849 -0.0409087 0.0 
3.55148 0.264681 0.0 
0.842117 -0.794382 0.0 
2.65591 1.43349 0.0 
0.932811 0.0144733 0.0 
-0.764917 -0.926758 0.0 
3.60734 -0.915315 0.0 
-0.605852 0.649115 0.0 
5.76621 -0.263827 0.0 
3.08877 -0.924843 0.0 
0.899825 -0.00795866 0.0 
6.80384 1.26814 0.0 
3.19847 -0.826277 0.0 
0.0166341 -0.0962489 0.0 
3.983 -1.51439 0.0 
5.81155 1.05052 0.0 
0.403773 -0.0376754 0.0 
4.06583 -0.737319 0.0 
3.85222 3.16404 0.0 
7.27994 -0.917065 0.0 
7.01199 -1.44503 0.0 
5.44634 0.7472 0.0 
5.43495 -0.0201864 0.0 
1.51213 -0.834065 0.0 
1.97076 0.806002 0.0 
0.634487 0.0595385 0.0 
-0.572414 -4.29099 0.0 
1.8826 -0.733417 0.0 
0.759381 -0.180619 0.0 
0.40132 0.0778474 0.0 
0.23454 -0.0430222 0.0 
-0.802406 2.95957 0.0 
0.691963 0.0549995 0.0 
5.47277 -0.740356 0.0 
14.1487 4.94071 0.0 
0.0736498 -1.30758 0.0 
-3.24273 0.882011 0.0 
1.37104 -0.876055 0.0 
-0.483647 -0.194829 0.0 
2.83565 1.06937 0.0 
5.52957 -1.21731 0.0 
0.947149 -0.00912481 0.0 
-0.408161 -0.611461 0.0 
-0.824132 1.91234 0.0 
-0.28194 0.734853 0.0 
-2.58987 -0.112571 0.0 
5.39673 0.0810302 0.0 
0.347037 -1.34491 0.0 
1.28521 2.08402 0.0 
0.220369 -0.0424097 0.0 
-0.490215 0.575937 0.0 
1.64934 -1.3049 0.0 
0.153085 0.0664047 0.0 
-0.251695 -2.55503 0.0 
0.826156 -0.0139773 0.0 
3.35673 0.186652 0.0 
4.62807 -2.39408 0.0 
-1.05781 -1.39579 0.0 
-2.54531 4.21509 0.0 
1.60336 1.51116 0.0 
0.713093 0.0498095 0.0 
0.643534 0.0642145 0.0 
-3.64101 4.81173 0.0 
-1.26922 -3.94313 0.0 
-0.342655 -1.12768 0.0 
3.30326 0.952175 0.0 
5.64264 0.331249 0.0 
1.34559 -0.214642 0.0 
1.60527 0.321358 0.0 
0.328683 -0.0401423 0.0 
3.81728 0.37784 0.0 
4.37562 0.758715 0.0 
5.5831 -1.82905 0.0 
-1.49688 0.101849 0.0 
-1.70027 -0.343758 0.0 
0.937041 0.0136815 0.0 
5.60623 1.42522 0.0 
-1.23169 -0.42816 0.0 
1.69627 2.52442 0.0 
1.36245 -1.5082 0.0 
1.25107 -3.80948 0.0 
2.74679 0.528168 0.0 
5.36614 -1.19177 0.0 
0.605019 1.16677 0.0 
-4.58423 -1.62108 0.0 
-2.02651 2.34708 0.0 
3.99339 3.63024 0.0 
-1.36142 -0.0750085 0.0 
5.19766 -0.482867 0.0 
-3.85513 -1.43107 0.0 
0.966422 0.00919783 0.0 
0.247834 0.0870881 0.0 
-0.465649 -0.817954 0.0 
4.29025 4.26714 0.0 
1.18312 -0.431176 0.0 
9.21986 0.0258833 0.0 
5.39136 -0.625475 0.0 
5.56604 0.611257 0.0 
1.96388 -1.61685 0.0 
0.196106 -0.0423443 0.0 
2.93186 0.364486 0.0 
5.88518 0.822328 0.0 
0.824138 -0.0139123 0.0 
-0.47228 -0.526413 0.0 
0.477118 -0.0338206 0.0 
-4.64673 -2.62107 0.0 
4.10712 -0.887195 0.0 
0.710355 0.0501717 0.0 
1.64936 -0.864917 0.0 
-1.61346 -3.22424 0.0 
0.0092848 0.0284272 0.0 
7.26993 2.53793 0.0 
1.1048 2.83071 0.0 
10.1588 1.30502 0.0 
-0.263385 -0.26391 0.0 
13.7005 7 0.0 
0.52333 0.0703707 0.0 
4.58595 -1.29531 0.0 
5.62067 -0.188463 0.0 
0.799738 -0.0147854 0.0 
11.9625 -2.20661 0.0 
5.40435 0.619553 0.0 
3.28687 -1.45096 0.0 
0.458966 0.0872446 0.0 
5.51568 -0.596029 0.0 
-1.63011 3.37507 0.0 
0.293181 -0.0414659 0.0 
0.865321 -2.71027 0.0 
0.786038 -0.0158333 0.0 
0.0736186 0.0492692 0.0 
4.13993 -2.76136 0.0 
0.881421 -0.0921271 0.0 
0.266317 -3.38104 0.0 
4.88629 -0.852705 0.0 
0.437008 0.076424 0.0 
3.8816 4.12562 0.0 
7.92184 -0.0908268 0.0 
0.176354 -0.0480078 0.0 
-0.662142 0.143724 0.0 
6.26015 0.128606 0.0 
0.915518 -0.00670685 0.0 
3.62021 -1.04763 0.0 
1.34876 0.720027 0.0 
0.982357 -3.49725 0.0 
0.663709 0.0566737 0.0 
5.3066 -0.705713 0.0 
-0.944514 -3.61431 0.0 
1.79294 -0.661223 0.0 
-0.342215 2.27409 0.0 
5.88842 -0.367403 0.0 
0.211839 -0.0420107 0.0 
0.654413 -0.0369233 0.0 
3.68564 6.54289 0.0 
5.00064 1.8515 0.0 
0.69027 0.0546811 0.0 
1.12166 0.441142 0.0 
7.31715 -3.60167 0.0 
2.79958 1.64327 0.0 
0.433465 0.0764782 0.0 
0.584196 0.0652607 0.0 
0.0636322 -0.695974 0.0 
-1.81416 1.63551 0.0 
0.74075 0.0465749 0.0 
2.69342 -1.49048 0.0 
4.86008 -1.00044 0.0 
0.822907 -0.0142337 0.0 
-0.164664 0.307939 0.0 
4.48127 5.51069 0.0 
4.4895 -4.79993 0.0 
5.37438 1.55243 0.0 
0.123991 1.28664 0.0 
6.41782 -0.499678 0.0 
3.16721 -0.70129 0.0 
1.99155 -0.729552 0.0 
4.69954 4.16905 0.0 
-1.91695 -2.36563 0.0 
8.09216 1.16816 0.0 
0.242046 0.0802658 0.0 
2.34355 2.47663 0.0 
2.72841 -0.285972 0.0 
13.5916 6.05949 0.0 
1.64671 4.40597 0.0 
3.03209 1.84093 0.0 
-0.498111 0.662759 0.0 
0.765551 -2.10462 0.0 
5.25655 0.61914 0.0 
6.04759 -2.75505 0.0 
1.12471 -0.237361 0.0 
6.40695 -2.14103 0.0 
4.37139 0.883681 0.0 
0.240004 -0.042139 0.0 
-4.55867 -4.42627 0.0 
-1.09286 3.96435 0.0 
-1.07351 0.572111 0.0 
3.73338 -0.828021 0.0 
-0.766762 -0.403459 0.0 
0.402752 -1.68281 0.0 
0.925255 0.0164317 0.0 
0.88786 -0.943606 0.0 
0.505244 -0.025873 0.0 
-0.299243 0.0389379 0.0 
3.36416 0.723434 0.0 
0.636773 1.7916 0.0 
0.0435288 1.09333 0.0 
0.74756 2.65039 0.0 
5.12608 -1.02106 0.0 
3.05399 0.794214 0.0 
3.3685 -2.29577 0.0 
9.40833 4.18552 0.0 
0.726496 1.10014 0.0 
-1.43587 -0.265452 0.0 
1.53809 -0.965095 0.0 
3.65342 -1.2467 0.0 
3.58193 2.86195 0.0 
1.58453 1.05649 0.0 
0.69113 -0.0216886 0.0 
4.67304 -0.737386 0.0 
2.403 -2.53676 0.0 
-0.883615 -1.03632 0.0 
0.570985 0.067201 0.0 
4.5489 1.01634 0.0 
1.30188 0.95494 0.0 
4.78484 -2.98767 0.0 
0.647276 3.74647 0.0 
1.64058 -1.98991 0.0 
5.60464 1.66025 0.0 
-2.46641 -2.76999 0.0 
0.0236771 0.0292808 0.0 
1.83737 -2.85625 0.0 
0.712397 -0.0207427 0.0 
-0.929233 -3.15638 0.0 
5.62429 -0.0217768 0.0 
0.696715 -0.0236006 0.0 
4.31467 0.462465 0.0 
1.90518 -1.00498 0.0 
3.8123 -0.317197 0.0 
-1.40698 0.43063 0.0 
8.12686 0.163945 0.0 
0.0912505 -0.0517404 0.0 
0.360402 0.0788181 0.0 
0.766222 5.08386 0.0 
0.543306 0.227627 0.0 
0.768677 -0.887089 0.0 
13.8069 6.49329 0.0 
3.14545 -0.527242 0.0 
3.00213 0.685174 0.0 
-3.26851 -1.17579 0.0 
0.326091 -0.0407782 0.0 
-0.350969 -1.28117 0.0 
-1.34372 -4.38367 0.0 
-1.47047 0.274883 0.0 
8.69891 -0.824176 0.0 
0.572752 0.0666296 0.0 
3.02391 1.56815 0.0 
0.546825 -0.0304958 0.0 
7.53034 -2.92118 0.0 
0.862614 -3.9233 0.0 
7.46433 -0.686568 0.0 
0.435695 0.0763326 0.0 
-0.291216 -0.600905 0.0 
0.958024 -0.00418663 0.0 
0.996359 0.00209859 0.0 
-3.04054 -1.35802 0.0 
7.86523 -1.29492 0.0 
0.824153 0.0339519 0.0 
-2.0843 -1.39076 0.0 
2.0242 4.23744 0.0 
6.10554 -1.09258 0.0 
0.070474 0.0518922 0.0 
0.253412 0.0852338 0.0 
4.90662 -3.37133 0.0 
5.3389 -1.37998 0.0 
8.18441 -5.4394 0.0 
4.74018 -1.11041 0.0 
-1.45792 -1.69797 0.0 
-0.658439 1.28669 0.0 
-1.47154 1.02941 0.0 
0.548603 -1.30682 0.0 
-4.28372 4.01846 0.0 
0.597388 -0.031556 0.0 
0.976283 3.91053 0.0 
-1.97604 3.44687 0.0 
-0.823498 -1.2495 0.0 
-0.676338 -0.322971 0.0 
0.0194499 -2.00073 0.0 
6.06625 2.2173 0.0 
4.77636 1.32682 0.0 
3.5286 -1.40716 0.0 
2.2348 6.10147 0.0 
4.3501 1.14584 0.0 
-0.374853 0.997283 0.0 
0.331239 -0.0398749 0.0 
2.92416 0.944765 0.0 
-1.08711 -0.79613 0.0 
-2.10643 0.811211 0.0 
10.0853 -2.20029 0.0 
9.19723 -1.4685 0.0 
-3.63493 -2.23583 0.0 
9.13289 -4.40814 0.0 
0.13646 -0.0401233 0.0 
3.73879 -1.49966 0.0 
1.16246 1.31001 0.0 
1.76621 -0.985528 0.0 
0.279409 0.0783782 0.0 
4.49882 0.813878 0.0 
0.0773295 0.0501322 0.0 
-1.7711 -2.7915 0.0 
2.21785 -2.83793 0.0 
1.9729 0.35934 0.0 
6.07917 0.172121 0.0 
-1.06801 -1.19434 0.0 
-0.742511 -0.787541 0.0 
4.55801 -0.996424 0.0 
10.0032 -3.21238 0.0 
4.23955 3.27 0.0 
4.4588 0.213546 0.0 
-3.41169 -1.50587 0.0 
0.374392 0.944982 0.0 
[...]
<PointData>
  <DataArray type = "Float64" Name="VitesseP1" NumberOfComponents="3" format="ascii">
1 0 0.0 
1.00296 0 0.0 
0.997846 0 0.0 
1 0 0.0 
1.00003 -0.000980673 0.0 
1.00628 -0.00602113 0.0 
0.983527 -0.00243644 0.0 
1.00112 -0.000854466 0.0 
1.00682 -0.000996002 0.0 
0.624864 0.0384639 0.0 
1.00098 -0.0011374 0.0 
0.999608 -0.00344251 0.0 
0.0115543 0.000357781 0.0 
0 0 0.0 
0.945368 -0.00154118 0.0 
0.0880594 0.00548729 0.0 
1.00501 -0.00555303 0.0 
1.00161 -0.00200014 0.0 
1.00167 -0.00548185 0.0 
1.00009 -0.000177173 0.0 
0.149954 0.0100863 0.0 
0.999511 0.00133802 0.0 
0.0776939 0.00947277 0.0 
1.00078 -0.00586276 0.0 
1.25679e-08 -4.78254e-10 0.0 
0.998509 -0.00235466 0.0 
3.12995e-08 6.97054e-09 0.0 
0.844913 -0.00388585 0.0 
1.13922 -0.112872 0.0 
0.0182754 0.00170886 0.0 
1.00107 -0.000894319 0.0 
1.00156 -0.00126243 0.0 
1.01461 -0.0170625 0.0 
0.982484 0.00841279 0.0 
1.00258 0.00829719 0.0 
0.0132361 0.00062586 0.0 
0.999214 -0.0118718 0.0 
1.00319 0.0187557 0.0 
1.00144 -0.00277399 0.0 
1.01652 0.0122512 0.0 
1.00071 -0.00142404 0.0 
1.00482 0.000149375 0.0 
1.00165 -0.00238512 0.0 
0.997252 0.000750375 0.0 
1.00121 -0.00105177 0.0 
1.00099 -0.000626744 0.0 
0.174167 0.0175531 0.0 
0.998245 -0.00404679 0.0 
0.998383 0.00269436 0.0 
1.00091 -0.000469531 0.0 
1.02356 -0.013276 0.0 
0.411881 -0.0404996 0.0 
1.00544 -0.00364872 0.0 
1.00063 -0.00303107 0.0 
0.0309487 0.0018865 0.0 
0.999822 0.000429212 0.0 
1.00153 -0.00307097 0.0 
1.00106 -0.0106226 0.0 
1.00139 -0.00244515 0.0 
0.993606 0.00928438 0.0 
1.00024 0.00338533 0.0 
1.0012 -0.00176762 0.0 
-3.04351e-09 -6.38696e-10 0.0 
1.00074 -0.000779724 0.0 
1.00159 -0.00274696 0.0 
-0.000851292 0.000160026 0.0 
3.22587e-08 -4.2693e-10 0.0 
0 0 0.0 
0.999184 0.00109544 0.0 
1.0008 -0.000896565 0.0 
1.00162 -0.00286818 0.0 
0.980843 -0.00437892 0.0 
0.986083 -0.00866891 0.0 
1.01716 0.00502639 0.0 
0 0 0.0 
1.00198 -0.00158488 0.0 
1 -0.000990841 0.0 
0.987458 0.00641292 0.0 
1.00153 -0.00165161 0.0 
1.00006 -0.000737154 0.0 
1.00095 -0.00266519 0.0 
0 0 0.0 
0.98291 -0.00174038 0.0 
1.01371 -0.000417082 0.0 
3.43678e-08 1.57571e-09 0.0 
1.00992 -0.00803499 0.0 
0.999871 -0.00178647 0.0 
1.00175 -0.000795672 0.0 
1.13231 -0.0689798 0.0 
0.388786 0.0202704 0.0 
0.994739 -0.00938581 0.0 
1.00154 -0.00283021 0.0 
0.999861 -0.000786461 0.0 
1.00171 -0.0020549 0.0 
1.00196 -0.000994774 0.0 
1.00142 -0.00222807 0.0 
0.116058 0.000464615 0.0 
0.996838 -0.0611654 0.0 
0.148775 0.00371024 0.0 
0.995487 -0.0117998 0.0 
-1.06862e-09 2.11445e-11 0.0 
1.00275 -0.000899202 0.0 
1.00684 -0.00268115 0.0 
1.00156 -0.00166405 0.0 
0.999173 -0.00170179 0.0 
1.00129 -0.00110557 0.0 
1.00036 -0.000210331 0.0 
0.595379 0.0344864 0.0 
0 0 0.0 
1.00179 -0.00153991 0.0 
1.00082 -0.00177479 0.0 
0 0 0.0 
1.00101 -0.00389341 0.0 
1.00549 0.00451546 0.0 
1.003 -0.00549973 0.0 
0 0 0.0 
0.995329 -0.00378289 0.0 
1.00107 -0.00219009 0.0 
0.999144 0.0192017 0.0 
1.00525 -0.00431403 0.0 
1.00049 -0.00222904 0.0 
0 0 0.0 
1.00208 -0.00164806 0.0 
1.00058 -0.00236096 0.0 
0.994143 -0.169868 0.0 
1.00142 -0.00166456 0.0 
1.00087 -0.00223792 0.0 
0 0 0.0 
1.00136 -0.00217779 0.0 
1.00147 -0.00205354 0.0 
1.00394 -0.000595592 0.0 
1.00239 -0.00141961 0.0 
1.00137 -0.0022674 0.0 
0.906099 -0.00165427 0.0 
0.998417 0.001732 0.0 
1.00318 -0.0105799 0.0 
0 0 0.0 
1.00039 -0.000560755 0.0 
0.997578 -0.000636092 0.0 
1.0163 0.0358409 0.0 
0 0 0.0 
0.0478416 0.0004863 0.0 
1.00355 0.00263298 0.0 
0.0614781 -0.00761734 0.0 
1.00211 -0.00174325 0.0 
0.998276 -0.000226599 0.0 
1.00216 -0.00426029 0.0 
0.999776 0.0019838 0.0 
0.999364 0.00246934 0.0 
0.976317 -0.0028351 0.0 
1.00226 -0.00564265 0.0 
1.00227 -0.0012463 0.0 
0.161631 0.0106999 0.0 
0.991819 -0.0103415 0.0 
1.00489 0.00589427 0.0 
1.009 0.0248701 0.0 
0.998651 0.00216965 0.0 
0.959467 -0.00697833 0.0 
1.00304 -0.00263857 0.0 
1.00772 -0.00309729 0.0 
7.98554e-09 -1.79005e-10 0.0 
0.998764 0.0237555 0.0 
1.00003 9.46027e-05 0.0 
0 0 0.0 
1.00043 -0.00142786 0.0 
0.0252643 0.00192489 0.0 
1.00014 -0.0041611 0.0 
1.0018 -0.00120427 0.0 
0.997779 -0.00191984 0.0 
1.00071 0.00107372 0.0 
1.00772 -0.00697439 0.0 
0 0 0.0 
0.252301 -0.0272618 0.0 
1.00019 0.000481943 0.0 
1.00017 -0.000539315 0.0 
0.999071 -0.00581345 0.0 
1.00181 -0.00454859 0.0 
0.999737 0.000320796 0.0 
0.98527 0.00400347 0.0 
0.996744 -0.017813 0.0 
0 0 0.0 
1.00121 -0.00355688 0.0 
1.00161 -0.00296632 0.0 
1.00205 -0.00113992 0.0 
0.995608 0.00506651 0.0 
0.996205 0.00237865 0.0 
0 0 0.0 
1.00103 -0.00203135 0.0 
0.993694 0.00144481 0.0 
1.00524 -0.00272944 0.0 
1.00103 1.15465e-05 0.0 
1.00092 -0.000717353 0.0 
1.0009 -0.00614717 0.0 
1.00208 -0.00170339 0.0 
1.02138 -0.00153896 0.0 
0.999981 0.000103358 0.0 
1.00144 0.00329454 0.0 
1.00106 -0.0016779 0.0 
0.99418 0.00422385 0.0 
1.00197 -0.00155669 0.0 
0.99979 0.000331063 0.0 
-0.0126077 0.00255733 0.0 
1.09454 0.0825311 0.0 
0.995496 -0.00750684 0.0 
1.00063 -0.00123666 0.0 
0.994783 0.0100279 0.0 
0.974185 -0.000137394 0.0 
1.00272 -0.00226867 0.0 
1.00245 -0.00193433 0.0 
1.00047 -0.00068613 0.0 
2.00522e-08 -9.77069e-10 0.0 
1.00056 -0.005367 0.0 
1.0025 -0.00149549 0.0 
0.0169474 0.0011108 0.0 
0.989166 -0.00903962 0.0 
0 0 0.0 
0.999996 1.63467e-05 0.0 
1.00146 -0.00205205 0.0 
0 0 0.0 
0.9984 0.000773217 0.0 
0.999929 -0.000620768 0.0 
0.690648 0.504819 0.0 
1.00027 -0.00111799 0.0 
1.00545 -0.00108056 0.0 
1.00299 -0.000123654 0.0 
0.973141 -0.0215278 0.0 
0.998013 0 0.0 
0 0 0.0 
1.00171 -0.00165991 0.0 
0.993741 -0.000778395 0.0 
0 0 0.0 
1.00346 -0.000639689 0.0 
1.00147 -0.00195006 0.0 
1.0009 -0.00171188 0.0 
0.858121 -0.0387596 0.0 
1.00158 -0.00108557 0.0 
1.00182 0.00202143 0.0 
1.79198e-08 8.21882e-10 0.0 
1.00102 -0.000993419 0.0 
0 0 0.0 
6.97911e-08 2.11059e-08 0.0 
1.00163 -0.00108347 0.0 
1.00069 0.0467219 0.0 
1.00068 -0.000901549 0.0 
1.00188 -0.00177319 0.0 
0 0 0.0 
1.00093 -0.0013597 0.0 
0.971096 -0.000371385 0.0 
0.696292 -0.0260705 0.0 
0.98442 0.0132019 0.0 
0.97297 -0.00119757 0.0 
0 0 0.0 
1.00106 -0.0020654 0.0 
1.00954 -0.0189839 0.0 
1.00088 -0.000802842 0.0 
0.00475052 -0.000574153 0.0 
1.00157 -0.00153042 0.0 
1.00022 -0.000708978 0.0 
0.996787 -0.000311746 0.0 
1.00631 0.00380426 0.0 
1.01177 -0.00555097 0.0 
0 0 0.0 
0.599741 0.034407 0.0 
1.00037 -0.000175253 0.0 
1.00131 -0.00223025 0.0 
0.0425959 -0.00521753 0.0 
1.01194 -0.0353911 0.0 
1.00233 -0.000623485 0.0 
1.00311 -0.00476822 0.0 
0 0 0.0 
8.12268e-09 -5.34176e-10 0.0 
1.00576 -0.0133993 0.0 
1.0013 0.00476849 0.0 
0.00308318 -0.00041352 0.0 
1.00048 -0.00143137 0.0 
1.00188 -0.0017519 0.0 
0.0268427 0.00160387 0.0 
0.989891 0.0600965 0.0 
1.00019 -0.000608442 0.0 
1.00159 -0.00049748 0.0 
1.00136 -0.00208698 0.0 
1.01599 0.00759882 0.0 
1.0112 -0.0051155 0.0 
1.00038 -0.00254617 0.0 
0.997781 -0.00113409 0.0 
1.00044 -0.00123076 0.0 
0.999432 -0.0005124 0.0 
1.001 -0.00150012 0.0 
0.553648 0.0405257 0.0 
1.00376 -0.00326618 0.0 
0.99931 -0.0035447 0.0 
0.998094 -9.80565e-05 0.0 
1.00219 -0.000657789 0.0 
1.00283 -0.00409445 0.0 
1.00077 0.0217155 0.0 
1.00134 -0.00112296 0.0 
1.00122 -0.00248053 0.0 
1.00224 -0.000917688 0.0 
0.986247 0.0173355 0.0 
1.00245 -0.00095061 0.0 
1.00162 -0.00297703 0.0 
0 0 0.0 
1 -2.8307e-05 0.0 
1.00198 0.00135346 0.0 
0.996798 0.010704 0.0 
1.00116 -0.00223463 0.0 
0.989047 -0.00151676 0.0 
1.002 -0.00193771 0.0 
-2.7028e-08 4.285e-09 0.0 
1.00414 0.00264445 0.0 
0 0 0.0 
0.952677 0.0176778 0.0 
1.00152 -0.00444382 0.0 
1.01177 -0.000282143 0.0 
1.01832 0.0122932 0.0 
1.00634 -0.000270719 0.0 
1.00182 -0.00161113 0.0 
1.00161 -0.00519299 0.0 
1.00125 -0.00121809 0.0 
0.999064 -0.000501439 0.0 
1.02159 -0.00496987 0.0 
0.994904 0.00278131 0.0 
0.999119 0.00118381 0.0 
1.0011 -0.00188826 0.0 
1.00181 -0.00242068 0.0 
1.0079 -0.0113072 0.0 
0 0 0.0 
1.00171 -0.00190365 0.0 
1.00104 -0.000949416 0.0 
0.99626 -0.00292964 0.0 
0.0283867 -0.00221268 0.0 
1.00156 -0.00278269 0.0 
1.01217 -0.0140566 0.0 
1.00183 -0.000970704 0.0 
1.00336 6.84773e-05 0.0 
1.00088 -0.000645525 0.0 
1.00126 -0.00182569 0.0 
0.999706 -0.000275328 0.0 
5.75987e-08 2.91069e-08 0.0 
1.00107 -0.000844308 0.0 
2.51151e-08 1.90085e-09 0.0 
1.00012 -0.000880705 0.0 
0.918533 0.00027808 0.0 
0.0853241 0.00561237 0.0 
1.00147 -0.0029864 0.0 
0.998965 -0.000426185 0.0 
1.00126 -0.00265558 0.0 
0.996547 0.00706383 0.0 
0.97521 -0.00150364 0.0 
1.14123 -0.155103 0.0 
1.22532e-08 5.54989e-10 0.0 
1.00172 -3.8369e-05 0.0 
1.1075 -0.0388832 0.0 
1.00597 0.00246504 0.0 
0.998044 -5.16306e-05 0.0 
1.00032 -0.00281933 0.0 
1.00146 -0.00534061 0.0 
0.999462 0.000588276 0.0 
0.0124973 0.000616806 0.0 
0.999297 -0.004607 0.0 
1.00021 -0.000435495 0.0 
0.996157 0.0060028 0.0 
1.00932 -0.00150014 0.0 
0.00863302 -0.000994414 0.0 
1.0026 -0.00453533 0.0 
0 0 0.0 
1.00248 -0.000674637 0.0 
1.00081 -0.000703983 0.0 
1.0065 -0.00244276 0.0 
0 0 0.0 
0.993519 -0.0137592 0.0 
0 0 0.0 
0 0 0.0 
0.999329 0.000486161 0.0 
1.00206 -0.00110629 0.0 
0.000591123 -0.000104304 0.0 
0.99848 8.30496e-05 0.0 
1.00213 -0.000963196 0.0 
1.00193 -0.0012092 0.0 
0.797497 0.251802 0.0 
0.959787 0.0669741 0.0 
1.00182 -0.000850089 0.0 
1.00208 -0.00147186 0.0 
1.00227 -0.000243482 0.0 
1.00178 -0.0016786 0.0 
0.998558 -0.00100677 0.0 
1.00548 0.01067 0.0 
0.999918 0.00712458 0.0 
1.00343 -0.00149774 0.0 
1.00004 0.000393908 0.0 
0.188043 0.0108851 0.0 
1.00305 -0.000297339 0.0 
1.00142 0.0018798 0.0 
0.997381 -0.00291172 0.0 
0.98612 -0.00176036 0.0 
1.00083 -0.00205624 0.0 
1.00072 -0.00157614 0.0 
1.00136 -0.00256947 0.0 
1.00107 -0.00176364 0.0 
1.00098 -0.000245983 0.0 
1.0015 -0.00296947 0.0 
1.00876 0.0163824 0.0 
0 0 0.0 
1.00198 -0.00548875 0.0 
0.994752 -0.00122546 0.0 
0.999196 0.00443762 0.0 
1.00263 -0.000416731 0.0 
1.0004 -0.000896114 0.0 
0.999823 8.33402e-05 0.0 
1.00257 -0.000383719 0.0 
0 0 0.0 
1.00126 -0.00169901 0.0 
1.0127 -0.00785183 0.0 
0.998878 7.97783e-05 0.0 
0 0 0.0 
1.00163 -0.00285096 0.0 
0 0 0.0 
0.999698 -0.000600689 0.0 
1.0011 -0.000872897 0.0 
0.998676 -0.0111712 0.0 
0.979343 -0.0068503 0.0 
0.996955 -0.00194361 0.0 
0.994009 -0.00410129 0.0 
1.00173 -0.00181947 0.0 
1.00271 -0.000397025 0.0 
1.00113 -0.00186058 0.0 
1.00096 -0.00278505 0.0 
0.999603 0.000364802 0.0 
1.02782 0.00564205 0.0 
0 0 0.0 
1.00367 -0.000345257 0.0 
1.02224 0.0159723 0.0 
0.985212 0.000920465 0.0 
0.998562 0.0134037 0.0 
1.00015 -0.00125301 0.0 
0.0114782 -0.00167226 0.0 
1.00156 -0.00171801 0.0 
1.00808 -0.00868472 0.0 
1.00099 0.0016824 0.0 
0.995678 -0.000479843 0.0 
4.31325e-08 8.27251e-10 0.0 
1.00296 -0.000244604 0.0 
1.00156 -0.00263178 0.0 
0 0 0.0 
1.00013 -0.00179604 0.0 
1.00285 0.00632003 0.0 
2.61735e-07 -9.20882e-09 0.0 
1.0002 -0.00233654 0.0 
1.00233 -0.00283704 0.0 
1.00049 -0.00146963 0.0 
0.0183692 0.000493147 0.0 
1.00793 0.0015323 0.0 
1.00211 -0.00026348 0.0 
1.00259 0.00331778 0.0 
1.01458 0.0016191 0.0 
1.003 -0.000154234 0.0 
1.00027 -0.00105832 0.0 
1.00248 -0.000217246 0.0 
1.00024 0.00404541 0.0 
1.00121 -0.00208943 0.0 
0.108158 0.0203375 0.0 
1.00099 -0.00106868 0.0 
0.283299 0.0217379 0.0 
1.00162 -0.000857787 0.0 
1.00014 0.00118991 0.0 
1.00017 0.0027994 0.0 
1.00127 -0.000450688 0.0 
1.00257 -0.000654247 0.0 
1.00005 0.00192823 0.0 
0.997191 0.00462413 0.0 
1.00192 -0.000238326 0.0 
1.02506 -0.00775868 0.0 
1.0001 -0.000784922 0.0 
1.00712 -6.80332e-05 0.0 
0 0 0.0 
1.00126 -0.00221287 0.0 
1.00148 -0.00422637 0.0 
1.00005 0.000412471 0.0 
1.00555 0.022049 0.0 
1.00032 -0.00593043 0.0 
0.998975 -0.000304694 0.0 
1.00208 -0.000765352 0.0 
0.947809 -0.000162347 0.0 
0.963248 0.00198469 0.0 
8.81633e-09 1.78721e-10 0.0 
1.00284 0.00218644 0.0 
1.00153 -0.0026127 0.0 
1.0031 -0.00166374 0.0 
1.00422 -0.000873455 0.0 
0.995911 0.00377942 0.0 
0 0 0.0 
0.996804 -0.000475269 0.0 
0.999896 0.000499832 0.0 
1.002 -0.00281728 0.0 
0 0 0.0 
0.999978 6.92762e-05 0.0 
1.00059 -0.000138685 0.0 
1.00201 -0.000911219 0.0 
0.999038 -0.000888797 0.0 
1.00119 -0.000737691 0.0 
1.00644 -0.00470425 0.0 
0.930851 0.00281148 0.0 
0.999963 -0.00286923 0.0 
1.0025 -0.000435933 0.0 
1.00194 -0.00325096 0.0 
0.998043 -7.87735e-05 0.0 
1.00105 -0.000850791 0.0 
1.00144 -0.00156531 0.0 
1.00001 0.00447483 0.0 
1.00232 -0.00404886 0.0 
0.998338 -0.000163729 0.0 
1.00167 -0.000968867 0.0 
1.0015 -0.00195045 0.0 
1.00009 0.000345893 0.0 
0.0905115 -0.00560566 0.0 
1.03509 -0.0446446 0.0 
1.00201 -0.000308997 0.0 
0.999892 0.00169791 0.0 
0.143909 -0.00818948 0.0 
1.00143 -0.0025242 0.0 
0.566366 -0.0549598 0.0 
1.00275 -0.00320851 0.0 
1.00004 -0.00014762 0.0 
0.997794 0.0033213 0.0 
1.00068 -0.00108866 0.0 
1.00255 -0.00410181 0.0 
0.00960184 0.000378552 0.0 
1.00062 -0.000277295 0.0 
1.00039 -0.00175065 0.0 
1.0023 -0.000882398 0.0 
0.99996 -0.00211517 0.0 
1.00207 -0.00691405 0.0 
1.00137 -0.00220031 0.0 
1.00829 -0.00123787 0.0 
1.00155 -0.00240227 0.0 
0.999586 -0.0153733 0.0 
1.00247 0.00175893 0.0 
0.996472 0.000356492 0.0 
1.00071 0.00132908 0.0 
6.47704e-09 5.04176e-10 0.0 
0.997989 -5.1037e-05 0.0 
8.19419e-08 3.83101e-08 0.0 
1.00027 -0.00121714 0.0 
0.992025 0.00499914 0.0 
1.00224 -0.00110858 0.0 
1.00234 -0.0011697 0.0 
1.00084 -0.00114838 0.0 
1.00224 -0.0105045 0.0 
0 0 0.0 
0.998528 -0.000249961 0.0 
0.994303 -0.00073736 0.0 
0.998508 -2.76306e-05 0.0 
0.0904222 0.00134698 0.0 
0.0222986 0.00109981 0.0 
0 0 0.0 
1.00338 -0.000414207 0.0 
0.999806 -0.000864084 0.0 
0.999881 -0.000492668 0.0 
1.00127 -0.00112943 0.0 
1.00363 -0.0021467 0.0 
1.00053 -0.00204904 0.0 
0.99785 3.70874e-05 0.0 
1.00056 -0.000888888 0.0 
0.999856 -0.00101638 0.0 
0.0520183 -0.00720283 0.0 
0.999252 -0.000212374 0.0 
1.00728 -0.000696472 0.0 
1.0134 0.00483471 0.0 
1.00265 -0.000573035 0.0 
0.998974 -5.21031e-05 0.0 
1.00143 -0.00271759 0.0 
1.00221 -0.00351821 0.0 
1.00148 -0.00257301 0.0 
1.00365 -0.000454421 0.0 
1.0002 -0.000814093 0.0 
1.00065 -0.00588139 0.0 
1.003 -0.00164287 0.0 
1.00197 -0.0010772 0.0 
1.00147 -0.000983051 0.0 
1.00074 -0.000945067 0.0 
0.985823 -0.00561456 0.0 
1.00014 -0.0075968 0.0 
1.00466 -0.000923577 0.0 
1.00053 -0.00771731 0.0 
1.00426 -0.00715494 0.0 
1.00236 0.00406743 0.0 
1.00507 0.015629 0.0 
1.01779 0.000333925 0.0 
1.0019 -0.00457712 0.0 
0.486508 0.186755 0.0 
1.00442 0.00390931 0.0 
1.00042 -0.000795564 0.0 
0.999165 -0.00751142 0.0 
1.0019 -0.000522603 0.0 
1.00001 0.000496291 0.0 
1.00199 -0.00228971 0.0 
1.00148 -0.000524214 0.0 
1.00164 -0.00109881 0.0 
1.00222 0.00260822 0.0 
1.00244 -0.000792855 0.0 
2.62675e-08 -3.31893e-09 0.0 
0.999365 -0.00227757 0.0 
0.999469 -0.000620686 0.0 
1.00349 -0.00702625 0.0 
0.999772 -0.000400092 0.0 
1.00058 0.000149394 0.0 
1.00306 -0.0011713 0.0 
1.00417 -0.000570236 0.0 
1.00199 -0.00317548 0.0 
1.0018 -0.00413531 0.0 
0.998331 -0.00150738 0.0 
0.999934 0.00112601 0.0 
1.00159 -0.00469639 0.0 
1.00484 0.000926699 0.0 
1.0007 -0.00169454 0.0 
1.00096 -0.00199481 0.0 
0.999538 -0.00122842 0.0 
1.00044 0.0060282 0.0 
1.00241 -0.000944007 0.0 
0 0 0.0 
0.995317 -0.000239174 0.0 
0.999704 -0.000836891 0.0 
1.00159 -0.00299105 0.0 
4.97714e-09 -8.87511e-11 0.0 
1.00043 -0.000363641 0.0 
1.00065 -0.00164783 0.0 
0.999063 -0.00152143 0.0 
1.00089 -0.0021338 0.0 
0.999034 -0.0071542 0.0 
1.00126 -0.000746058 0.0 
1.00018 0.000585964 0.0 
0 0 0.0 
1.00234 -0.00142035 0.0 
1.00029 -0.00232867 0.0 
1.00094 -0.00147849 0.0 
1.00593 -0.00230152 0.0 
1.00363 -0.00169782 0.0 
0.999922 0.000237322 0.0 
1.00091 -0.000308672 0.0 
1.0014 -0.00330319 0.0 
1.00129 -0.00351635 0.0 
1.00751 -0.0331982 0.0 
0.99942 -0.000663596 0.0 
1.00093 -0.00228094 0.0 
1.00261 -6.78988e-05 0.0 
1.0012 -0.000111465 0.0 
0.92606 -0.00537098 0.0 
0 0 0.0 
1.00151 0.000741762 0.0 
0.999212 0.00187989 0.0 
0.989086 0.00283993 0.0 
1.00296 0.000359288 0.0 
1.00159 -0.00244196 0.0 
1.00175 -0.001459 0.0 
0.999685 0.00014274 0.0 
1.0022 -0.000114443 0.0 
0.999294 0.00388891 0.0 
1.0017 -0.00157436 0.0 
0.999754 -0.000462352 0.0 
1.00446 -0.00380082 0.0 
0.99953 -0.000320707 0.0 
1.00159 -0.000415133 0.0 
0.0140943 0.000827569 0.0 
1.01448 -0.00369283 0.0 
1.00878 -0.00460129 0.0 
1.01306 -0.0083674 0.0 
1.00173 -0.000172229 0.0 
1.00418 -0.00811492 0.0 
1.00158 -0.00157528 0.0 
0 0 0.0 
1.00099 -0.00119965 0.0 
0.732709 -0.13577 0.0 
1.0416 -0.0462635 0.0 
0.997451 0.0057737 0.0 
1.00002 -3.92795e-05 0.0 
0.997737 -0.00510797 0.0 
0.990211 0.000432144 0.0 
1.00085 0.00976821 0.0 
1.00261 -0.000509846 0.0 
0.326857 0.0333009 0.0 
1.00149 0.00403185 0.0 
1.00158 -0.0011849 0.0 
1.00166 -0.00156095 0.0 
1.00153 -0.00267179 0.0 
0 0 0.0 
0.999268 -0.00031126 0.0 
1.00109 -0.000701329 0.0 
0.999341 0.0059185 0.0 
0.999724 -0.00231301 0.0 
1.00133 -0.000706862 0.0 
1.00008 -0.00144951 0.0 
1.00254 -0.00344276 0.0 
0.995545 -0.012984 0.0 
0.986685 -0.000336096 0.0 
0.99871 0.00311792 0.0 
0.999609 -0.000530707 0.0 
1.00099 -0.000538645 0.0 
1.00087 -0.00103312 0.0 
1.00154 0.00106754 0.0 
1.05024 -0.223231 0.0 
0.997221 -0.00662012 0.0 
0.998512 0.00572535 0.0 
1.00001 0.000339024 0.0 
1.00331 -0.00179481 0.0 
1.00192 0.00288322 0.0 
1.00186 -0.000392519 0.0 
0.999943 -0.000752876 0.0 
1.00688 -0.000616171 0.0 
1.00426 -0.0267657 0.0 
1.00183 -0.00144264 0.0 
1.00137 -0.000934743 0.0 
1.00004 -0.000561888 0.0 
0.991028 0.00132368 0.0 
1.00266 -0.00060182 0.0 
1.00072 -0.000356931 0.0 
0.97368 -0.000580466 0.0 
1.00137 -0.000914736 0.0 
0.999127 -0.00257957 0.0 
1.00168 -0.000707806 0.0 
1.00012 -0.00120602 0.0 
1.00271 -0.000233497 0.0 
1.00082 -0.0030004 0.0 
1.00051 -0.000960451 0.0 
1.00067 0.000537425 0.0 
1.00081 -0.000431593 0.0 
1.00043 -0.000994682 0.0 
0.999872 0.00163378 0.0 
1.00465 -0.000297136 0.0 
1.00249 -3.09838e-05 0.0 
1.00139 -0.000487096 0.0 
1.00104 -0.000763408 0.0 
0.998403 0.00172787 0.0 
1.00325 -0.000780958 0.0 
1.00078 -3.29766e-06 0.0 
0.999988 -0.000148129 0.0 
1.00106 -0.000610095 0.0 
1.00054 -0.000693231 0.0 
0.999996 -2.459e-05 0.0 
1.00016 -0.00119972 0.0 
1.00018 -0.000335307 0.0 
1.00003 -4.78477e-05 0.0 
1.00081 -0.00119378 0.0 
0.998125 -4.53714e-05 0.0 
0 0 0.0 
1.00111 -0.00209517 0.0 
0.999307 0.00241957 0.0 
0.999586 -0.000408012 0.0 
0.99925 -0.000632062 0.0 
1.00222 -0.0014676 0.0 
1.0001 -0.000109691 0.0 
1.00211 -0.00192511 0.0 
1.00193 -0.000818678 0.0 
0 0 0.0 
1.00849 -0.000960767 0.0 
1.05035 -0.0724177 0.0 
1.00167 -0.00124701 0.0 
1.00107 -0.000824708 0.0 
0.998572 -0.00022883 0.0 
1.00001 0.000147049 0.0 
1.00013 -0.0108192 0.0 
1.00201 -0.00350416 0.0 
1.00062 -0.000385198 0.0 
0 0 0.0 
1.00139 -0.00102836 0.0 
0.999889 -0.000787099 0.0 
1.00301 -0.000144384 0.0 
1.00261 -5.92438e-05 0.0 
1.00721 -0.000137392 0.0 
1.0011 -0.000445582 0.0 
1.00021 -0.00293531 0.0 
0.997604 0.0549784 0.0 
1.00221 -0.000636796 0.0 
1.0011 -0.00159495 0.0 
1.00168 -0.00296389 0.0 
1.00172 0.00508745 0.0 
1.00206 -0.00137633 0.0 
1.00424 0.00205201 0.0 
1.00512 0.000477675 0.0 
0.999259 -0.000262115 0.0 
1.00185 -0.00162578 0.0 
1.00264 -0.00020724 0.0 
1.00077 -0.0023156 0.0 
1.00104 -0.000348809 0.0 
1.00052 -7.41858e-05 0.0 
0.99976 -0.000762642 0.0 
1.00069 0.000771862 0.0 
1.00184 0.0327369 0.0 
1.00142 0.000477955 0.0 
-2.37223e-09 2.56218e-11 0.0 
1.00048 0.00178579 0.0 
1.00083 -0.00185166 0.0 
1.00368 0.00568093 0.0 
1.00593 -0.0026061 0.0 
0.999996 -0.000462526 0.0 
1.00026 -0.00126098 0.0 
1.00018 -0.00298295 0.0 
0.99904 -0.00214415 0.0 
1.00286 -0.000579523 0.0 
0.999602 -0.00054261 0.0 
0.994497 0.00329344 0.0 
0.999591 -0.00350999 0.0 
0.999467 0.000271934 0.0 
1.00159 -0.0029396 0.0 
0.966493 0.000336346 0.0 
1.00154 -0.00169689 0.0 
1.00076 -0.00148318 0.0 
1.00159 -0.000963985 0.0 
1.00091 -0.000991694 0.0 
0.999185 -0.000487634 0.0 
1.00159 -0.00422523 0.0 
0.999982 0.00136843 0.0 
0.998663 -0.000287214 0.0 
1.00366 -0.000342453 0.0 
0.180691 -0.0164039 0.0 
1.00243 -0.00071072 0.0 
1.00138 -0.000149799 0.0 
0.997314 0.00142703 0.0 
1.00009 -0.000871699 0.0 
0.998838 -0.000119338 0.0 
1.0037 -0.000946066 0.0 
1.00007 -0.000366442 0.0 
1.00069 -0.00166311 0.0 