<VTKFile type="UnstructuredGrid" version="0.1" byte_order="LittleEndian">
  <UnstructuredGrid>
    <Piece NumberOfPoints="23679" NumberOfCells="47236">
      <Points>
        <DataArray type = "Float64" NumberOfComponents="3" format="ascii">
-5 -7 0.0 
15.5 -7 0.0 
15.5 7 0.0 
-5 7 0.0 
7.63511 2.91639 0.0 
1.87049 1.67084 0.0 
-0.605974 -0.287769 0.0 
2.37337 -3.10656 0.0 
0.929906 2.48659 0.0 
0.824948 -0.0289232 0.0 
0.579762 -2.6174 0.0 
2.75639 -0.320238 0.0 
0.600589 -0.0279367 0.0 
0.809974 0.0358912 0.0 
4.52511 -0.0925724 0.0 
0.692729 -0.023898 0.0 
2.14598 1.71184 0.0 
4.47114 -0.725108 0.0 
2.94972 0.812693 0.0 
-2.51884 -5.20772 0.0 
0.933054 -0.00978829 0.0 
-3.39004 -0.0550254 0.0 
0.209319 0.0741243 0.0 
-0.14562 -1.1416 0.0 
0.16355 -0.0415655 0.0 
4.37129 -0.146188 0.0 
0.125896 0.0617342 0.0 
2.89507 -0.00321849 0.0 
0.117818 -0.0547525 0.0 
0.74577 -0.0190427 0.0 
1.20907 -2.59566 0.0 
7.05945 1.36908 0.0 
1.18414 0.837326 0.0 
-0.664239 0.00933663 0.0 
0.988285 -0.635056 0.0 
0.79931 -0.0154644 0.0 
-0.169857 -0.752454 0.0 
-0.535193 0.781979 0.0 
4.50646 0.336854 0.0 
0.675201 -0.447934 0.0 
4.33956 3.92927 0.0 
7.20401 -0.547152 0.0 
5.06202 0.761268 0.0 
-1.83764 -0.830466 0.0 
2.97447 -2.59497 0.0 
1.77447 -4.2029 0.0 
0.203756 0.0741702 0.0 
2.3905 -0.208726 0.0 
-2.38226 0.0491773 0.0 
1.57579 -4.90006 0.0 
0.892623 0.876713 0.0 
0.619187 0.0692661 0.0 
1.81524 2.22933 0.0 
3.20393 -0.375619 0.0 
0.560088 -0.0307549 0.0 
-4.00064 -1.06423 0.0 
4.1637 1.41296 0.0 
2.03909 0.577378 0.0 
3.97155 -0.451817 0.0 
-1.0713 0.305678 0.0 
1.24518 -0.853569 0.0 
5.30713 0.379083 0.0 
0.993214 0.00283989 0.0 
0.513972 -3.72515 0.0 
4.25372 1.90694 0.0 
0.87556 0.025233 0.0 
0.401296 0.0780688 0.0 
0.44761 -0.0359067 0.0 
-3.06259 -0.640688 0.0 
0.58449 -3.29242 0.0 
4.47137 0.702541 0.0 
-0.523713 -0.272593 0.0 
-0.477755 -0.422453 0.0 
0.570246 -0.533547 0.0 
0.538433 -0.0310055 0.0 
5.2741 -1.01059 0.0 
2.21102 -1.39328 0.0 
1.30783 -0.274121 0.0 
4.18709 -1.48886 0.0 
-1.19726 -3.28581 0.0 
-0.0359698 -1.75399 0.0 
0.617039 -0.0263973 0.0 
5.83653 0.150199 0.0 
5.57946 0.224905 0.0 
0.377841 -0.038928 0.0 
1.38254 1.36675 0.0 
2.58372 -1.06479 0.0 
4.70454 -3.6075 0.0 
0.551438 0.113173 0.0 
0.532912 -0.0384617 0.0 
-0.392031 -0.729994 0.0 
4.38556 1.53498 0.0 
-1.34387 -2.96962 0.0 
4.73748 -0.295427 0.0 
5.13252 -2.84762 0.0 
5.34987 1.08334 0.0 
0.326684 0.0802051 0.0 
1.0681 0.191919 0.0 
0.292684 0.0800176 0.0 
-0.288073 -0.693253 0.0 
0.850052 0.029488 0.0 
7.72674 -2.22661 0.0 
5.73402 0.253504 0.0 
3.27298 3.73283 0.0 
2.31769 -0.889324 0.0 
3.24694 -2.57408 0.0 
-0.795775 -5.8192 0.0 
0.667923 -0.0361302 0.0 
0.835769 0.0314682 0.0 
4.69839 -1.50939 0.0 
4.91709 3.01814 0.0 
0.151849 -0.0409087 0.0 
3.55148 0.264681 0.0 
0.842117 -0.794382 0.0 
2.65591 1.43349 0.0 
0.932811 0.0144733 0.0 
-0.764917 -0.926758 0.0 
3.60734 -0.915315 0.0 
-0.605852 0.649115 0.0 
5.76621 -0.263827 0.0 
3.08877 -0.924843 0.0 
0.899825 -0.00795866 0.0 
6.80384 1.26814 0.0 
3.19847 -0.826277 0.0 
0.0166341 -0.0962489 0.0 
3.983 -1.51439 0.0 
5.81155 1.05052 0.0 
0.403773 -0.0376754 0.0 
4.06583 -0.737319 0.0 
3.85222 3.16404 0.0 
7.27994 -0.917065 0.0 
7.01199 -1.44503 0.0 
5.44634 0.7472 0.0 
5.43495 -0.0201864 0.0 
1.51213 -0.834065 0.0 
1.97076 0.806002 0.0 
0.634487 0.0595385 0.0 
-0.572414 -4.29099 0.0 
1.8826 -0.733417 0.0 
0.759381 -0.180619 0.0 
0.40132 0.0778474 0.0 
0.23454 -0.0430222 0.0 
-0.802406 2.95957 0.0 
0.691963 0.0549995 0.0 
5.47277 -0.740356 0.0 
14.1487 4.94071 0.0 
0.0736498 -1.30758 0.0 
-3.24273 0.882011 0.0 
1.37104 -0.876055 0.0 
-0.483647 -0.194829 0.0 
2.83565 1.06937 0.0 
5.52957 -1.21731 0.0 
0.947149 -0.00912481 0.0 
-0.408161 -0.611461 0.0 
-0.824132 1.91234 0.0 
-0.28194 0.734853 0.0 
-2.58987 -0.112571 0.0 
5.39673 0.0810302 0.0 
0.347037 -1.34491 0.0 
1.28521 2.08402 0.0 
0.220369 -0.0424097 0.0 
-0.490215 0.575937 0.0 
1.64934 -1.3049 0.0 
0.153085 0.0664047 0.0 
-0.251695 -2.55503 0.0 
0.826156 -0.0139773 0.0 
3.35673 0.186652 0.0 
4.62807 -2.39408 0.0 
-1.05781 -1.39579 0.0 
-2.54531 4.21509 0.0 
1.60336 1.51116 0.0 
0.713093 0.0498095 0.0 
0.643534 0.0642145 0.0 
-3.64101 4.81173 0.0 
-1.26922 -3.94313 0.0 
-0.342655 -1.12768 0.0 
3.30326 0.952175 0.0 
5.64264 0.331249 0.0 
1.34559 -0.214642 0.0 
1.60527 0.321358 0.0 
0.328683 -0.0401423 0.0 
3.81728 0.37784 0.0 
4.37562 0.758715 0.0 
5.5831 -1.82905 0.0 
-1.49688 0.101849 0.0 
-1.70027 -0.343758 0.0 
0.937041 0.0136815 0.0 
5.60623 1.42522 0.0 
-1.23169 -0.42816 0.0 
1.69627 2.52442 0.0 
1.36245 -1.5082 0.0 
1.25107 -3.80948 0.0 
2.74679 0.528168 0.0 
5.36614 -1.19177 0.0 
0.605019 1.16677 0.0 
-4.58423 -1.62108 0.0 
-2.02651 2.34708 0.0 
3.99339 3.63024 0.0 
-1.36142 -0.0750085 0.0 
5.19766 -0.482867 0.0 
-3.85513 -1.43107 0.0 
0.966422 0.00919783 0.0 
0.247834 0.0870881 0.0 
-0.465649 -0.817954 0.0 
4.29025 4.26714 0.0 
1.18312 -0.431176 0.0 
9.21986 0.0258833 0.0 
5.39136 -0.625475 0.0 
5.56604 0.611257 0.0 
1.96388 -1.61685 0.0 
0.196106 -0.0423443 0.0 
2.93186 0.364486 0.0 
5.88518 0.822328 0.0 
0.824138 -0.0139123 0.0 
-0.47228 -0.526413 0.0 
0.477118 -0.0338206 0.0 
-4.64673 -2.62107 0.0 
4.10712 -0.887195 0.0 
0.710355 0.0501717 0.0 
1.64936 -0.864917 0.0 
-1.61346 -3.22424 0.0 
0.0092848 0.0284272 0.0 
7.26993 2.53793 0.0 
1.1048 2.83071 0.0 
10.1588 1.30502 0.0 
-0.263385 -0.26391 0.0 
13.7005 7 0.0 
0.52333 0.0703707 0.0 
4.58595 -1.29531 0.0 
5.62067 -0.188463 0.0 
0.799738 -0.0147854 0.0 
11.9625 -2.20661 0.0 
5.40435 0.619553 0.0 
3.28687 -1.45096 0.0 
0.458966 0.0872446 0.0 
5.51568 -0.596029 0.0 
-1.63011 3.37507 0.0 
0.293181 -0.0414659 0.0 
0.865321 -2.71027 0.0 
0.786038 -0.0158333 0.0 
0.0736186 0.0492692 0.0 
4.13993 -2.76136 0.0 
0.881421 -0.0921271 0.0 
0.266317 -3.38104 0.0 
4.88629 -0.852705 0.0 
0.437008 0.076424 0.0 
3.8816 4.12562 0.0 
7.92184 -0.0908268 0.0 
0.176354 -0.0480078 0.0 
-0.662142 0.143724 0.0 
6.26015 0.128606 0.0 
0.915518 -0.00670685 0.0 
3.62021 -1.04763 0.0 
1.34876 0.720027 0.0 
0.982357 -3.49725 0.0 
0.663709 0.0566737 0.0 
5.3066 -0.705713 0.0 
-0.944514 -3.61431 0.0 
1.79294 -0.661223 0.0 
-0.342215 2.27409 0.0 
5.88842 -0.367403 0.0 
0.211839 -0.0420107 0.0 
0.654413 -0.0369233 0.0 
3.68564 6.54289 0.0 
5.00064 1.8515 0.0 
0.69027 0.0546811 0.0 
1.12166 0.441142 0.0 
7.31715 -3.60167 0.0 
2.79958 1.64327 0.0 
0.433465 0.0764782 0.0 
0.584196 0.0652607 0.0 
0.0636322 -0.695974 0.0 
-1.81416 1.63551 0.0 
0.74075 0.0465749 0.0 
2.69342 -1.49048 0.0 
4.86008 -1.00044 0.0 
0.822907 -0.0142337 0.0 
-0.164664 0.307939 0.0 
4.48127 5.51069 0.0 
4.4895 -4.79993 0.0 
5.37438 1.55243 0.0 
0.123991 1.28664 0.0 
6.41782 -0.499678 0.0 
3.16721 -0.70129 0.0 
1.99155 -0.729552 0.0 
4.69954 4.16905 0.0 
-1.91695 -2.36563 0.0 
8.09216 1.16816 0.0 
0.242046 0.0802658 0.0 
2.34355 2.47663 0.0 
2.72841 -0.285972 0.0 
13.5916 6.05949 0.0 
1.64671 4.40597 0.0 
3.03209 1.84093 0.0 
-0.498111 0.662759 0.0 
0.765551 -2.10462 0.0 
5.25655 0.61914 0.0 
6.04759 -2.75505 0.0 
1.12471 -0.237361 0.0 
6.40695 -2.14103 0.0 
4.37139 0.883681 0.0 
0.240004 -0.042139 0.0 
-4.55867 -4.42627 0.0 
-1.09286 3.96435 0.0 
-1.07351 0.572111 0.0 
3.73338 -0.828021 0.0 
-0.766762 -0.403459 0.0 
0.402752 -1.68281 0.0 
0.925255 0.0164317 0.0 
0.88786 -0.943606 0.0 
0.505244 -0.025873 0.0 
-0.299243 0.0389379 0.0 
3.36416 0.723434 0.0 
0.636773 1.7916 0.0 
0.0435288 1.09333 0.0 
0.74756 2.65039 0.0 
5.12608 -1.02106 0.0 
3.05399 0.794214 0.0 
3.3685 -2.29577 0.0 
9.40833 4.18552 0.0 
0.726496 1.10014 0.0 
-1.43587 -0.265452 0.0 
1.53809 -0.965095 0.0 
3.65342 -1.2467 0.0 
3.58193 2.86195 0.0 
1.58453 1.05649 0.0 
0.69113 -0.0216886 0.0 
4.67304 -0.737386 0.0 
2.403 -2.53676 0.0 
-0.883615 -1.03632 0.0 
0.570985 0.067201 0.0 
4.5489 1.01634 0.0 
1.30188 0.95494 0.0 
4.78484 -2.98767 0.0 
0.647276 3.74647 0.0 
1.64058 -1.98991 0.0 
5.60464 1.66025 0.0 
-2.46641 -2.76999 0.0 
0.0236771 0.0292808 0.0 
1.83737 -2.85625 0.0 
0.712397 -0.0207427 0.0 
-0.929233 -3.15638 0.0 
5.62429 -0.0217768 0.0 
0.696715 -0.0236006 0.0 
4.31467 0.462465 0.0 
1.90518 -1.00498 0.0 
3.8123 -0.317197 0.0 
-1.40698 0.43063 0.0 
8.12686 0.163945 0.0 
0.0912505 -0.0517404 0.0 
0.360402 0.0788181 0.0 
0.766222 5.08386 0.0 
0.543306 0.227627 0.0 
0.768677 -0.887089 0.0 
13.8069 6.49329 0.0 
3.14545 -0.527242 0.0 
3.00213 0.685174 0.0 
-3.26851 -1.17579 0.0 
0.326091 -0.0407782 0.0 
-0.350969 -1.28117 0.0 
-1.34372 -4.38367 0.0 
-1.47047 0.274883 0.0 
8.69891 -0.824176 0.0 
0.572752 0.0666296 0.0 
3.02391 1.56815 0.0 
0.546825 -0.0304958 0.0 
7.53034 -2.92118 0.0 
0.862614 -3.9233 0.0 
7.46433 -0.686568 0.0 
0.435695 0.0763326 0.0 
-0.291216 -0.600905 0.0 
0.958024 -0.00418663 0.0 
0.996359 0.00209859 0.0 
-3.04054 -1.35802 0.0 
7.86523 -1.29492 0.0 
0.824153 0.0339519 0.0 
-2.0843 -1.39076 0.0 
2.0242 4.23744 0.0 
6.10554 -1.09258 0.0 
0.070474 0.0518922 0.0 
0.253412 0.0852338 0.0 
4.90662 -3.37133 0.0 
5.3389 -1.37998 0.0 
8.18441 -5.4394 0.0 
4.74018 -1.11041 0.0 
-1.45792 -1.69797 0.0 
-0.658439 1.28669 0.0 
-1.47154 1.02941 0.0 
0.548603 -1.30682 0.0 
-4.28372 4.01846 0.0 
0.597388 -0.031556 0.0 
0.976283 3.91053 0.0 
-1.97604 3.44687 0.0 
-0.823498 -1.2495 0.0 
-0.676338 -0.322971 0.0 
0.0194499 -2.00073 0.0 
6.06625 2.2173 0.0 
4.77636 1.32682 0.0 
3.5286 -1.40716 0.0 
2.2348 6.10147 0.0 
4.3501 1.14584 0.0 
-0.374853 0.997283 0.0 
0.331239 -0.0398749 0.0 
2.92416 0.944765 0.0 
-1.08711 -0.79613 0.0 
-2.10643 0.811211 0.0 
10.0853 -2.20029 0.0 
9.19723 -1.4685 0.0 
-3.63493 -2.23583 0.0 
9.13289 -4.40814 0.0 
0.13646 -0.0401233 0.0 
3.73879 -1.49966 0.0 
1.16246 1.31001 0.0 
1.76621 -0.985528 0.0 
0.279409 0.0783782 0.0 
4.49882 0.813878 0.0 
0.0773295 0.0501322 0.0 
-1.7711 -2.7915 0.0 
2.21785 -2.83793 0.0 
1.9729 0.35934 0.0 
6.07917 0.172121 0.0 
-1.06801 -1.19434 0.0 
-0.742511 -0.787541 0.0 
4.55801 -0.996424 0.0 
10.0032 -3.21238 0.0 
4.23955 3.27 0.0 
4.4588 0.213546 0.0 
-3.41169 -1.50587 0.0 
0.374392 0.944982 0.0 
[...]
<PointData>
  <DataArray type = "Float64" Name="VitesseP1" NumberOfComponents="3" format="ascii">
1 0 0.0 
1.00021 0 0.0 
0.999797 0 0.0 
1 0 0.0 
0.999323 0.000291073 0.0 
1.00215 -0.00896805 0.0 
0.983924 -0.00471124 0.0 
1.00215 -0.000432888 0.0 
1.00505 -0.00267425 0.0 
0.629485 0.0389687 0.0 
1.00176 -0.00166283 0.0 
1.00911 -0.00790795 0.0 
0.0114654 0.00035543 0.0 
0 0 0.0 
0.999278 0.00596808 0.0 
0.0879761 0.0054894 0.0 
1.0003 -0.0081703 0.0 
1.00206 0.00428059 0.0 
0.990553 -0.00830732 0.0 
1.0001 -0.000296303 0.0 
0.151418 0.010169 0.0 
0.999521 0.00126417 0.0 
0.0784577 0.00956225 0.0 
1.00168 -0.00721036 0.0 
1.23506e-08 -4.96259e-10 0.0 
0.999989 0.00700419 0.0 
3.15265e-08 6.9887e-09 0.0 
0.952974 -0.0189892 0.0 
1.14459 -0.113926 0.0 
0.0183317 0.00171373 0.0 
1.00209 -0.00124123 0.0 
0.999202 0.000796602 0.0 
1.01201 -0.0217299 0.0 
0.982466 0.00600697 0.0 
1.00393 0.00688804 0.0 
0.0133359 0.000631017 0.0 
1.00037 -0.0136149 0.0 
1.00236 0.01661 0.0 
0.996381 0.00476722 0.0 
1.01813 0.0113427 0.0 
0.999281 -0.00091687 0.0 
0.999956 0.0011992 0.0 
0.997483 0.00220572 0.0 
0.997273 -5.30141e-05 0.0 
1.00256 -9.41643e-05 0.0 
1.00155 -0.0004777 0.0 
0.175705 0.0177028 0.0 
1.00338 -0.0103733 0.0 
0.998367 0.00233596 0.0 
1.00134 -0.000378101 0.0 
1.02153 -0.0172432 0.0 
0.432111 -0.043047 0.0 
1.0023 -0.0055753 0.0 
1.01294 -0.000217721 0.0 
0.0306717 0.00187023 0.0 
0.999829 0.000392217 0.0 
0.995523 -0.00042038 0.0 
0.995036 -0.0180178 0.0 
1.00469 0.00680353 0.0 
0.993297 0.00763365 0.0 
1.00185 0.00179044 0.0 
0.998439 0.00259277 0.0 
-2.86695e-09 -7.24309e-10 0.0 
1.00126 -0.00102718 0.0 
0.996866 -0.000922795 0.0 
-0.000154255 3.55905e-05 0.0 
3.32398e-08 -4.48882e-10 0.0 
0 0 0.0 
0.99922 0.000995332 0.0 
1.00141 -0.00120965 0.0 
0.995428 0.00287229 0.0 
0.981343 -0.00682756 0.0 
0.986814 -0.0109194 0.0 
1.01888 0.00396974 0.0 
0 0 0.0 
1.00088 0.00256345 0.0 
1.00287 -0.00164646 0.0 
0.988394 0.00405956 0.0 
1.00298 0.00208612 0.0 
1.00027 -0.00127214 0.0 
1.00168 -0.00365065 0.0 
0 0 0.0 
0.999203 0.00207154 0.0 
0.998963 0.00234456 0.0 
3.35973e-08 1.53696e-09 0.0 
1.0067 -0.0116523 0.0 
1.00426 -0.00236852 0.0 
1.00158 0.00055796 0.0 
1.13334 -0.0710926 0.0 
0.387343 0.0202922 0.0 
0.995611 -0.011178 0.0 
0.996283 -0.000141791 0.0 
1.00004 -0.00138765 0.0 
1.00007 0.00462643 0.0 
1.00154 0.000973498 0.0 
0.99787 0.00144032 0.0 
0.118309 0.000469264 0.0 
0.995534 -0.0670855 0.0 
0.150924 0.00375002 0.0 
0.996521 -0.0136549 0.0 
9.94223e-10 -2.94686e-10 0.0 
1.00046 0.000831697 0.0 
0.999033 0.00213871 0.0 
0.999785 -0.00164676 0.0 
1.00325 -0.00344257 0.0 
1.00257 0.000138018 0.0 
1.00058 -0.000343472 0.0 
0.596932 0.0347859 0.0 
0 0 0.0 
1.00205 0.00221262 0.0 
0.998597 -0.000593046 0.0 
0 0 0.0 
0.981986 0.00313071 0.0 
1.00692 0.00322577 0.0 
0.996407 -0.00778817 0.0 
0 0 0.0 
0.995769 -0.00522728 0.0 
1.00598 0.00239485 0.0 
0.998397 0.0170358 0.0 
0.999691 0.00228619 0.0 
1.00654 -0.00070957 0.0 
0 0 0.0 
0.999121 0.000881708 0.0 
1.00741 -3.37996e-05 0.0 
0.999176 -0.174119 0.0 
1.00335 0.00180665 0.0 
0.998488 0.00132979 0.0 
0 0 0.0 
1.004 0.00461326 0.0 
0.99895 -0.0015828 0.0 
1.00011 0.00115598 0.0 
1.00037 0.00119691 0.0 
0.998206 0.00190576 0.0 
0.999249 0.00273121 0.0 
1.00036 -0.000123876 0.0 
0.997509 -0.0165674 0.0 
0 0 0.0 
1.00067 -0.000863151 0.0 
1.00035 -0.00303815 0.0 
1.01764 0.035765 0.0 
0 0 0.0 
0.0469904 0.000476363 0.0 
1.00313 0.00200712 0.0 
0.0705276 -0.00880368 0.0 
1.0004 0.00254932 0.0 
0.999797 4.4542e-05 0.0 
1.00312 -0.00547284 0.0 
0.999775 0.00189768 0.0 
1.0011 0.00079073 0.0 
0.976798 -0.00550539 0.0 
0.993294 -0.0083257 0.0 
1.00086 0.00213716 0.0 
0.163156 0.0107895 0.0 
0.992692 -0.012307 0.0 
1.00426 0.0047885 0.0 
1.00793 0.0224023 0.0 
0.998662 0.00191942 0.0 
0.99904 0.00273995 0.0 
1.00413 -0.00378966 0.0 
1.00513 -0.00532825 0.0 
7.82832e-09 -1.95039e-10 0.0 
0.997948 0.0213577 0.0 
1.00212 -0.00108073 0.0 
0 0 0.0 
1.00091 -0.00209887 0.0 
0.0255068 0.00194227 0.0 
0.976953 -0.001816 0.0 
1.00196 0.00117706 0.0 
0.998058 -0.00297872 0.0 
1.00069 0.00116065 0.0 
1.00402 -0.0103452 0.0 
0 0 0.0 
0.270582 -0.0295842 0.0 
1.00018 0.000464857 0.0 
1.00035 -0.0009654 0.0 
0.999825 -0.00719486 0.0 
0.991263 -0.00440316 0.0 
0.998856 0.00217381 0.0 
0.986257 0.00143726 0.0 
0.993856 -0.0255078 0.0 
0 0 0.0 
0.98856 0.00492862 0.0 
0.994928 0.00253884 0.0 
1.00115 0.00162777 0.0 
0.995463 0.00393256 0.0 
0.996171 0.00143995 0.0 
0 0 0.0 
0.998208 0.00094836 0.0 
0.993759 7.58476e-05 0.0 
1.00265 -0.00433698 0.0 
1.00269 -0.000979295 0.0 
1.00154 -0.000760866 0.0 
0.988578 -0.0124393 0.0 
1.00099 0.00228915 0.0 
1.01957 -0.00462037 0.0 
0.999982 9.24866e-05 0.0 
1.00129 0.00325075 0.0 
0.999209 -0.00124789 0.0 
0.994088 0.00293087 0.0 
1.00016 0.00316079 0.0 
0.999804 0.00030338 0.0 
-0.0105821 0.00217165 0.0 
1.09557 0.0823251 0.0 
0.996249 -0.00917801 0.0 
0.999507 -0.000826709 0.0 
0.995878 0.00820037 0.0 
0.999884 0.000593369 0.0 
1.00029 0.00273875 0.0 
0.998478 0.00197967 0.0 
1.00268 -0.00129575 0.0 
1.96914e-08 -9.76228e-10 0.0 
0.984645 -0.0116623 0.0 
0.998661 0.00151966 0.0 
0.0171035 0.00112073 0.0 
0.98994 -0.0111127 0.0 
0 0 0.0 
0.999996 1.35924e-05 0.0 
1.00372 0.00384566 0.0 
0 0 0.0 
1.00058 -0.00113678 0.0 
1.00007 -0.00117626 0.0 
0.682487 0.496127 0.0 
0.999219 0.000368565 0.0 
1.00373 -0.00245986 0.0 
0.999782 0.000382257 0.0 
0.974333 -0.024526 0.0 
0.999768 0 0.0 
0 0 0.0 
1.00222 0.00263415 0.0 
0.999572 0.00247979 0.0 
0 0 0.0 
1.00015 0.000255959 0.0 
0.998263 0.00212145 0.0 
1.00432 0.000373572 0.0 
0.869558 -0.0398769 0.0 
1.00019 0.00257059 0.0 
1.00172 0.0019946 0.0 
1.75193e-08 7.99066e-10 0.0 
1.00187 -0.00141563 0.0 
0 0 0.0 
7.00899e-08 2.1163e-08 0.0 
1.00212 0.000723036 0.0 
1.00111 0.0469889 0.0 
1.00121 -0.00126324 0.0 
1.00124 0.00327146 0.0 
0 0 0.0 
0.999599 -0.00107507 0.0 
0.999824 0.000904992 0.0 
0.692866 -0.0260017 0.0 
0.984175 0.0107877 0.0 
0.999413 0.00168476 0.0 
0 0 0.0 
1.00528 0.00208544 0.0 
1.0066 -0.0243408 0.0 
1.00153 -0.000976249 0.0 
0.00551342 -0.000666754 0.0 
1.00048 0.00280406 0.0 
1.00046 -0.00116893 0.0 
0.999274 -0.00283108 0.0 
1.00549 0.00254058 0.0 
0.999818 0.00214635 0.0 
0 0 0.0 
0.601008 0.0346796 0.0 
1.00013 -0.000148612 0.0 
0.997622 0.000201978 0.0 
0.0493053 -0.00608165 0.0 
1.0102 -0.040871 0.0 
1.00077 0.000609987 0.0 
0.996914 -0.00625699 0.0 
0 0 0.0 
8.8625e-09 -5.9747e-10 0.0 
1.00727 -0.0150389 0.0 
1.00105 0.00443149 0.0 
0.00400646 -0.000539894 0.0 
1.00378 -0.00104875 0.0 
1.00146 0.00303171 0.0 
0.0271028 0.00161974 0.0 
0.988524 0.0567594 0.0 
0.999807 -0.000389131 0.0 
1.00141 0.000230069 0.0 
0.997936 0.000767575 0.0 
1.01459 0.00519079 0.0 
0.999928 0.00165832 0.0 
1.00829 -0.000381724 0.0 
1.00092 -0.00362037 0.0 
0.99934 -0.000668511 0.0 
0.99952 -0.00111856 0.0 
0.999541 0.000666345 0.0 
0.557556 0.0407546 0.0 
1.00036 -0.00449343 0.0 
1.0088 -0.00869331 0.0 
0.999769 2.39447e-05 0.0 
1.00134 -0.00108641 0.0 
0.997109 -0.00478519 0.0 
0.999928 0.0194177 0.0 
1.00235 -0.001826 0.0 
0.99803 0.00229181 0.0 
1.00106 0.00100855 0.0 
0.986708 0.0155255 0.0 
1.00079 0.00119909 0.0 
0.995141 0.00190161 0.0 
0 0 0.0 
0.999998 -2.91405e-05 0.0 
1.00186 0.00118214 0.0 
0.996368 0.00914481 0.0 
1.00575 0.00335787 0.0 
0.989372 -0.00343286 0.0 
1.00297 -0.00291069 0.0 
-1.92434e-08 2.99162e-09 0.0 
1.00554 0.00134678 0.0 
0 0 0.0 
0.952615 0.0139598 0.0 
0.988761 -0.0035687 0.0 
1.0099 -0.00263277 0.0 
1.017 0.00982379 0.0 
1.00482 -0.00176906 0.0 
1.00107 0.00270799 0.0 
0.989957 -0.00729386 0.0 
1.0028 0.000298571 0.0 
0.999581 0.000155663 0.0 
1.01965 -0.00830171 0.0 
0.994855 0.00158375 0.0 
1.00108 -0.000481402 0.0 
1.00451 0.00165071 0.0 
0.998711 -0.00214098 0.0 
1.00404 -0.0159337 0.0 
0 0 0.0 
1.0015 0.00387921 0.0 
1.0025 -0.000561319 0.0 
0.996614 -0.00424023 0.0 
0.0305376 -0.0023838 0.0 
0.995925 0.00151987 0.0 
1.00917 -0.0186083 0.0 
1.00169 0.000844879 0.0 
1.00258 -0.0006705 0.0 
1.0025 -0.0011216 0.0 
0.998214 0.000695787 0.0 
0.999749 -0.000573571 0.0 
5.77156e-08 2.90842e-08 0.0 
1.00216 -0.00080017 0.0 
2.5123e-08 1.90394e-09 0.0 
1.00038 -0.00142576 0.0 
0.999328 0.00242947 0.0 
0.0852724 0.00561523 0.0 
0.994724 0.00450575 0.0 
1.00164 -0.00210173 0.0 
1.00676 0.00853557 0.0 
0.996279 0.00588891 0.0 
0.99977 0.000818522 0.0 
1.14721 -0.1566 0.0 
1.25835e-08 5.5032e-10 0.0 
1.00141 -0.000328422 0.0 
1.10743 -0.0416257 0.0 
1.00737 0.00120195 0.0 
0.999771 1.22364e-05 0.0 
1.0103 -0.000941737 0.0 
0.988789 -0.00834374 0.0 
0.999488 0.000531954 0.0 
0.0122365 0.000605202 0.0 
1 -0.00587204 0.0 
1.00039 -0.000800857 0.0 
0.995945 0.00486816 0.0 
1.00004 0.000720764 0.0 
0.00933887 -0.00107622 0.0 
0.995837 -0.00549115 0.0 
0 0 0.0 
1.00064 0.000732405 0.0 
1.00136 -0.000834934 0.0 
1.00001 0.00109181 0.0 
0 0 0.0 
0.994602 -0.0157759 0.0 
0 0 0.0 
0 0 0.0 
0.999357 0.000400497 0.0 
1.0002 0.000919442 0.0 
0.00157218 -0.000302832 0.0 
0.998542 -0.00053165 0.0 
1.00109 -0.00136892 0.0 
1.00043 0.00177036 0.0 
0.796131 0.251252 0.0 
0.962752 0.0669821 0.0 
1.00156 0.000691606 0.0 
1.00115 0.00211863 0.0 
1.00071 0.000226626 0.0 
1.00181 0.00292649 0.0 
0.998708 -0.00185699 0.0 
1.00468 0.00902573 0.0 
0.999565 0.00623984 0.0 
1.00463 -0.00264781 0.0 
1.00004 0.000381714 0.0 
0.187592 0.0108632 0.0 
1.00219 -0.000966708 0.0 
1.00136 0.0019709 0.0 
0.997786 -0.00411555 0.0 
0.986468 -0.00387973 0.0 
1.00151 -0.00291936 0.0 
0.998678 0.000369913 0.0 
0.996838 0.000841877 0.0 
1.00426 0.00106602 0.0 
1.00069 -0.000311699 0.0 
0.995369 0.000797315 0.0 
1.00777 0.0142397 0.0 
0 0 0.0 
0.991951 -0.00802058 0.0 
0.994979 -0.0025532 0.0 
0.999078 0.00404545 0.0 
1.00022 0.00043666 0.0 
1.00016 0.000605454 0.0 
0.999834 5.99906e-05 0.0 
1.00053 0.000322533 0.0 
0 0 0.0 
1.00376 0.0014519 0.0 
1.00994 -0.0114052 0.0 
1.00125 -0.00164402 0.0 
0 0 0.0 
0.995623 0.00229415 0.0 
0 0 0.0 
0.999804 -0.00120048 0.0 
1.00226 -0.000587341 0.0 
0.99336 -0.0200194 0.0 
0.999302 0.00181845 0.0 
0.997228 -0.00309275 0.0 
0.994479 -0.00567166 0.0 
1.00213 0.0033335 0.0 
1.00034 0.000376331 0.0 
0.998882 -0.00116301 0.0 
0.996688 0.00566824 0.0 
0.999619 0.000330594 0.0 
1.02629 0.00269081 0.0 
0 0 0.0 
1.00008 0.000164876 0.0 
1.0209 0.0133553 0.0 
0.999926 0.000731193 0.0 
0.997986 0.0116512 0.0 
1.0033 -0.0014741 0.0 
0.0198151 -0.00302556 0.0 
1.00282 0.00250739 0.0 
1.00428 -0.0126113 0.0 
1.00096 0.00179852 0.0 
0.995809 -0.00166447 0.0 
4.41414e-08 8.24706e-10 0.0 
1.0002 0.000258295 0.0 
0.996541 0.00169562 0.0 
0 0 0.0 
1.00451 -0.00165904 0.0 
1.00239 0.00546017 0.0 
2.57309e-07 -9.05986e-09 0.0 
1.0068 -0.00184404 0.0 
0.998764 -0.0030128 0.0 
0.99882 0.000212925 0.0 
0.017988 0.00048238 0.0 
1.00663 -0.000117984 0.0 
1.00086 0.000238359 0.0 
1.00232 0.0029685 0.0 
1.01288 -0.000868379 0.0 
1.00025 0.00011757 0.0 
1.00064 -0.00161497 0.0 
1.00054 0.000190327 0.0 
1.00011 0.00385605 0.0 
1.00504 0.00278761 0.0 
0.10878 0.0204529 0.0 
1.00276 -0.00048229 0.0 
0.285952 0.0219269 0.0 
1.00278 -0.00168807 0.0 
1.00013 0.00112762 0.0 
1.00013 0.00270957 0.0 
1.00147 -1.97816e-05 0.0 
1.00064 0.00167327 0.0 
1.00004 0.00183942 0.0 
0.998722 0.00273228 0.0 
1.00102 0.000192737 0.0 
1.02319 -0.011327 0.0 
1.00268 -0.00150214 0.0 
1.00007 0.000273934 0.0 
0 0 0.0 
0.99771 0.000484456 0.0 
0.988394 -0.00202704 0.0 
0.999929 0.000218425 0.0 
1.0046 0.0197218 0.0 
0.986589 -0.0141676 0.0 
0.999534 2.26367e-05 0.0 
1.00115 0.000744968 0.0 
0.999539 0.00187976 0.0 
0.999574 0.00209044 0.0 
9.10311e-09 1.59415e-10 0.0 
1.00254 0.00177057 0.0 
0.997319 0.00421515 0.0 
1.00127 -0.00240764 0.0 
1.00276 -0.00191362 0.0 
0.995817 0.00278566 0.0 
0 0 0.0 
0.996925 -0.00150508 0.0 
0.9999 0.000463026 0.0 
0.99819 -0.00265614 0.0 
0 0 0.0 
0.99998 6.00147e-05 0.0 
0.99974 0.00198391 0.0 
1.00138 0.000885025 0.0 
1.00207 -0.0025697 0.0 
1.00184 -0.000251568 0.0 
1.00287 -0.00715321 0.0 
0.999418 0.00224735 0.0 
1.00054 -0.00390101 0.0 
1.00052 0.000524558 0.0 
0.996432 -0.00226016 0.0 
0.999784 1.98191e-05 0.0 
1.00206 -0.00100772 0.0 
1.00318 0.00145387 0.0 
0.999861 0.00417887 0.0 
0.974241 0.00291679 0.0 
0.999746 5.53241e-05 0.0 
1.00068 -0.0011915 0.0 
1.0034 0.00339691 0.0 
1.00009 0.000336358 0.0 
0.0940081 -0.00583664 0.0 
1.03409 -0.0494015 0.0 
1.00097 0.000265813 0.0 
1.00165 0.000180073 0.0 
0.149194 -0.00853109 0.0 
0.997218 -0.000454104 0.0 
0.589049 -0.0579597 0.0 
0.998878 -0.00382743 0.0 
1.00003 -0.000170271 0.0 
0.997737 0.00277734 0.0 
1.00303 -0.000857665 0.0 
0.996244 -0.00447122 0.0 
0.00968638 0.000381931 0.0 
1.00032 -0.000271502 0.0 
1.0009 -0.00253057 0.0 
1.00092 0.000966967 0.0 
0.999841 0.000471355 0.0 
0.993335 -0.0117103 0.0 
0.997631 0.000785298 0.0 
1.00007 0.000508451 0.0 
0.997804 0.00298656 0.0 
0.995771 -0.0228333 0.0 
1.00226 0.00145787 0.0 
0.996529 -0.000643801 0.0 
1.00237 -4.47722e-06 0.0 
6.35658e-09 4.93837e-10 0.0 
0.999785 9.90023e-06 0.0 
8.21208e-08 3.83623e-08 0.0 
0.999215 -0.000505423 0.0 
0.991947 0.00342348 0.0 
1.00098 0.00132879 0.0 
1.00064 0.00257237 0.0 
1.00305 -0.000562744 0.0 
0.996278 -0.01709 0.0 
0 0 0.0 
0.999768 8.51211e-05 0.0 
0.996015 -0.00370394 0.0 
0.999891 0.000105233 0.0 
0.0888956 0.00132473 0.0 
0.0223738 0.00110457 0.0 
0 0 0.0 
1.00019 0.000174599 0.0 
0.999355 0.0002215 0.0 
0.999974 -0.000991862 0.0 
1.00018 -0.00115786 0.0 
1.0013 -0.00309387 0.0 
1.00563 -0.000337338 0.0 
0.997921 -0.000734225 0.0 
1.00101 -0.00128957 0.0 
0.99923 -0.00012565 0.0 
0.0652457 -0.00914447 0.0 
0.999843 7.62747e-05 0.0 
0.998977 0.00194992 0.0 
1.01196 0.00259637 0.0 
1.00048 0.000622384 0.0 
0.999034 -0.000546166 0.0 
0.996407 0.000439282 0.0 
0.996566 -0.0031758 0.0 
0.997764 -0.00159252 0.0 
1.00015 7.03195e-05 0.0 
0.999433 0.000355426 0.0 
0.987209 -0.0125218 0.0 
1.00044 0.00201169 0.0 
1.00152 0.00119142 0.0 
1.00216 0.000360904 0.0 
0.999935 -0.000806425 0.0 
0.986367 -0.00782617 0.0 
0.990839 -0.0161472 0.0 
1.00594 -0.00213195 0.0 
0.991395 -0.0156255 0.0 
0.998745 -0.0108061 0.0 
1.00208 0.00369172 0.0 
1.00423 0.0136509 0.0 
1.01599 -0.00248496 0.0 
0.992553 -0.00482362 0.0 
0.486106 0.186567 0.0 
1.00387 0.00300832 0.0 
1.00077 -0.00120123 0.0 
0.990102 -0.0179534 0.0 
1.00119 0.000415499 0.0 
1.00001 0.000483919 0.0 
0.998177 0.00250064 0.0 
1.00149 0.000159892 0.0 
1.00021 0.000804739 0.0 
1.00205 0.00243517 0.0 
1.00056 0.00094403 0.0 
3.08823e-08 -3.91185e-09 0.0 
0.998932 0.00150318 0.0 
0.999535 0.000218155 0.0 
0.997114 -0.0108437 0.0 
0.999834 -0.000838293 0.0 
1.00063 0.000188851 0.0 
1.00162 -0.00187853 0.0 
1.00019 0.000482313 0.0 
0.997112 -0.00262516 0.0 
0.993283 -0.00333047 0.0 
0.998557 -0.00245052 0.0 
0.999929 0.00107591 0.0 
0.989471 -0.00497073 0.0 
1.00618 -0.000311163 0.0 
0.998598 -0.000251139 0.0 
0.998265 -0.000568212 0.0 
0.999726 0.000379862 0.0 
1.00014 0.00541661 0.0 
1.00069 0.00092889 0.0 
0 0 0.0 
1 0.000350353 0.0 
0.999353 -0.000132672 0.0 
0.995102 0.00136173 0.0 
5.22274e-09 -1.07519e-10 0.0 
1.00071 -0.000539939 0.0 
0.998623 0.000208283 0.0 
0.999562 0.000556688 0.0 
1.00594 0.00124988 0.0 
0.999904 -0.00863635 0.0 
1.00186 -0.000123659 0.0 
1.00017 0.000562589 0.0 
0 0 0.0 
1.00089 0.00172717 0.0 
1.00087 -0.00324882 0.0 
1.00377 -2.90395e-05 0.0 
0.999958 0.00135962 0.0 
0.999713 0.000573404 0.0 
0.999924 0.00021151 0.0 
1.00125 -0.000213471 0.0 
1.00226 -0.00440546 0.0 
0.984406 0.00888577 0.0 
1.00564 -0.0389243 0.0 
0.999754 0.000329774 0.0 
1.00673 0.00192939 0.0 
1.00198 -0.00062339 0.0 
1.0013 -1.1251e-05 0.0 
0.982286 -0.0169992 0.0 
0 0 0.0 
1.00147 0.000635781 0.0 
0.999231 0.00175919 0.0 
0.989161 0.0010041 0.0 
1.0024 -0.000253753 0.0 
0.99739 0.00241819 0.0 
1.00228 0.00179766 0.0 
0.999706 0.000115032 0.0 
1.00076 0.000101106 0.0 
0.999236 0.00361531 0.0 
1.00238 0.00222653 0.0 
0.999627 -0.000188268 0.0 
1.00093 -0.00546475 0.0 
0.999606 -0.000102622 0.0 
1.00133 0.000198093 0.0 
0.0139834 0.000820968 0.0 
1.01225 -0.00669976 0.0 
1.00583 -0.00729349 0.0 
1.01476 -0.00976483 0.0 
1.00115 0.00011195 0.0 
0.998394 -0.0124913 0.0 
1.00032 0.00162605 0.0 
0 0 0.0 
1.00299 -0.000229257 0.0 
0.735442 -0.14483 0.0 
1.04077 -0.050867 0.0 
0.99724 0.00488633 0.0 
1.00001 -3.9267e-05 0.0 
0.998373 -0.00649786 0.0 
0.990387 -0.00134023 0.0 
1.00033 0.00843625 0.0 
1.00176 -0.00108028 0.0 
0.329339 0.0335365 0.0 
1.0013 0.00384718 0.0 
1.00232 0.000834014 0.0 
1.00258 0.00200734 0.0 
0.996773 -0.000325522 0.0 
0 0 0.0 
0.99933 -0.000829791 0.0 
1.00175 -0.000445486 0.0 
0.999099 0.0052551 0.0 
1.00019 -0.00325124 0.0 
1.00179 -6.4571e-06 0.0 
1.00045 -0.00216633 0.0 
0.998054 -0.0038301 0.0 
0.991946 -0.022175 0.0 
0.999997 0.00011027 0.0 
0.998652 0.00278353 0.0 
0.99961 0.000237755 0.0 
1.00145 -0.000368744 0.0 
1.00156 -0.00145046 0.0 
1.00151 0.00100951 0.0 
1.05498 -0.224639 0.0 
0.997961 -0.0081385 0.0 
0.998291 0.00496797 0.0 
1.00001 0.000331109 0.0 
1.00013 0.00102726 0.0 
1.00177 0.0028006 0.0 
1.00319 -0.00135429 0.0 
0.99954 -0.000332006 0.0 
1.00007 0.000315999 0.0 
1.002 -0.0328033 0.0 
1.00058 0.00188492 0.0 
1.00048 -0.00105605 0.0 
0.99988 8.30706e-05 0.0 
0.992316 -0.00134584 0.0 
1.00011 0.000177505 0.0 
1.0011 -0.000368273 0.0 
0.999826 0.000705764 0.0 
1.00213 0.000141959 0.0 
0.998758 0.00184862 0.0 
1.00155 0.000420703 0.0 
0.999082 1.50961e-05 0.0 
1.00038 0.000181338 0.0 
1.01363 0.00577959 0.0 
1.00298 -0.00123411 0.0 
1.00068 0.000637283 0.0 
1.00258 -0.00118402 0.0 
1.00085 -0.00147433 0.0 
0.999866 0.00155622 0.0 
1.00004 0.00015355 0.0 
1.00022 0.000226559 0.0 
1.00089 -0.000675697 0.0 
1.00241 -0.00110758 0.0 
0.998413 0.00138387 0.0 
1.00014 0.000159088 0.0 
1.00012 0.00033497 0.0 
0.999993 -0.000149003 0.0 
1.0016 -0.000361096 0.0 
0.99983 0.000245275 0.0 
0.999996 -2.47231e-05 0.0 
0.999165 -0.000359083 0.0 
1.00031 -0.000654925 0.0 
1.00003 -4.55992e-05 0.0 
1.00145 -0.00173801 0.0 
0.999753 1.64188e-05 0.0 
0 0 0.0 
0.998232 -0.000877222 0.0 
0.999295 0.0022676 0.0 
0.999642 -0.000893937 0.0 
0.999506 0.00016754 0.0 
1.00331 -0.00247143 0.0 
1.00011 -0.000167086 0.0 
0.999969 -0.00216427 0.0 
1.00138 0.000728253 0.0 
0 0 0.0 
1.00006 0.000239506 0.0 
1.05035 -0.0773652 0.0 
1.00039 -0.00142755 0.0 
1.00205 -0.000642947 0.0 
0.999678 8.54055e-05 0.0 
1.00001 0.000142711 0.0 
0.994319 -0.018812 0.0 
0.995681 -0.00243344 0.0 
1.00099 -0.000468495 0.0 
0 0 0.0 
1.00233 0.000227743 0.0 
0.999549 0.000315484 0.0 
1.00015 0.000116162 0.0 
0.999894 0.00020876 0.0 
0.999125 0.00183788 0.0 
1.00144 -0.000177608 0.0 
0.998786 0.00165552 0.0 
0.996254 0.0518193 0.0 
0.999833 0.000410375 0.0 
0.998865 0.000692685 0.0 
0.996203 -0.000733198 0.0 
1.00142 0.00463623 0.0 
1.00122 0.00188574 0.0 
1.00366 0.00122947 0.0 
0.999634 0.000632931 0.0 
0.999554 -3.97651e-05 0.0 
1.00014 -0.00182248 0.0 
1.00397 -0.00131433 0.0 
1.00711 0.00100113 0.0 
1.00135 -0.000161632 0.0 
1.00082 -9.33951e-05 0.0 
0.999442 -0.000224838 0.0 
1.00069 0.000873404 0.0 
1.00082 0.0300458 0.0 
1.00138 0.000340557 0.0 
-1.99711e-09 -6.58742e-11 0.0 
1.00046 0.0017456 0.0 
0.998396 -0.000367362 0.0 
1.00318 0.00479239 0.0 
1.00008 0.00130216 0.0 
1.00237 -0.00142159 0.0 
1.00065 -0.00189022 0.0 
1.01317 0.00780684 0.0 
1.00395 -0.00427332 0.0 
1.00027 0.000389387 0.0 
0.999538 -0.000157246 0.0 
0.996028 0.00100812 0.0 
1.0112 -0.00799275 0.0 
0.999493 0.000204021 0.0 
0.995079 0.00318489 0.0 
0.999729 0.00100042 0.0 
0.998475 0.0010659 0.0 
0.999076 0.000741867 0.0 
1.002 0.000533081 0.0 
1.00274 -0.000690771 0.0 
0.999487 8.90795e-06 0.0 
0.989796 -0.00241144 0.0 
0.999978 0.00130747 0.0 
0.999745 0.000103561 0.0 
0.999775 0.000445446 0.0 
0.203161 -0.0200161 0.0 
1.00073 0.000691444 0.0 
1.0013 3.25542e-05 0.0 
0.997328 0.00070079 0.0 
0.99951 0.000359465 0.0 
0.99956 1.03064e-05 0.0 
1.00018 0.000215615 0.0 
1.00014 -0.000731384 0.0 
0.998692 0.00120907 0.0 
0.999752 3.89318e-05 0.0 
0.0331658 -0.00440028 0.0 
1.00246 -0.00102694 0.0 
1.00007 -0.0139607 0.0 