<VTKFile type="UnstructuredGrid" version="0.1" byte_order="LittleEndian">
  <UnstructuredGrid>
    <Piece NumberOfPoints="23679" NumberOfCells="47236">
      <Points>
        <DataArray type = "Float64" NumberOfComponents="3" format="ascii">
-5 -7 0.0 
15.5 -7 0.0 
15.5 7 0.0 
-5 7 0.0 
7.63511 2.91639 0.0 
1.87049 1.67084 0.0 
-0.605974 -0.287769 0.0 
2.37337 -3.10656 0.0 
0.929906 2.48659 0.0 
0.824948 -0.0289232 0.0 
0.579762 -2.6174 0.0 
2.75639 -0.320238 0.0 
0.600589 -0.0279367 0.0 
0.809974 0.0358912 0.0 
4.52511 -0.0925724 0.0 
0.692729 -0.023898 0.0 
2.14598 1.71184 0.0 
4.47114 -0.725108 0.0 
2.94972 0.812693 0.0 
-2.51884 -5.20772 0.0 
0.933054 -0.00978829 0.0 
-3.39004 -0.0550254 0.0 
0.209319 0.0741243 0.0 
-0.14562 -1.1416 0.0 
0.16355 -0.0415655 0.0 
4.37129 -0.146188 0.0 
0.125896 0.0617342 0.0 
2.89507 -0.00321849 0.0 
0.117818 -0.0547525 0.0 
0.74577 -0.0190427 0.0 
1.20907 -2.59566 0.0 
7.05945 1.36908 0.0 
1.18414 0.837326 0.0 
-0.664239 0.00933663 0.0 
0.988285 -0.635056 0.0 
0.79931 -0.0154644 0.0 
-0.169857 -0.752454 0.0 
-0.535193 0.781979 0.0 
4.50646 0.336854 0.0 
0.675201 -0.447934 0.0 
4.33956 3.92927 0.0 
7.20401 -0.547152 0.0 
5.06202 0.761268 0.0 
-1.83764 -0.830466 0.0 
2.97447 -2.59497 0.0 
1.77447 -4.2029 0.0 
0.203756 0.0741702 0.0 
2.3905 -0.208726 0.0 
-2.38226 0.0491773 0.0 
1.57579 -4.90006 0.0 
0.892623 0.876713 0.0 
0.619187 0.0692661 0.0 
1.81524 2.22933 0.0 
3.20393 -0.375619 0.0 
0.560088 -0.0307549 0.0 
-4.00064 -1.06423 0.0 
4.1637 1.41296 0.0 
2.03909 0.577378 0.0 
3.97155 -0.451817 0.0 
-1.0713 0.305678 0.0 
1.24518 -0.853569 0.0 
5.30713 0.379083 0.0 
0.993214 0.00283989 0.0 
0.513972 -3.72515 0.0 
4.25372 1.90694 0.0 
0.87556 0.025233 0.0 
0.401296 0.0780688 0.0 
0.44761 -0.0359067 0.0 
-3.06259 -0.640688 0.0 
0.58449 -3.29242 0.0 
4.47137 0.702541 0.0 
-0.523713 -0.272593 0.0 
-0.477755 -0.422453 0.0 
0.570246 -0.533547 0.0 
0.538433 -0.0310055 0.0 
5.2741 -1.01059 0.0 
2.21102 -1.39328 0.0 
1.30783 -0.274121 0.0 
4.18709 -1.48886 0.0 
-1.19726 -3.28581 0.0 
-0.0359698 -1.75399 0.0 
0.617039 -0.0263973 0.0 
5.83653 0.150199 0.0 
5.57946 0.224905 0.0 
0.377841 -0.038928 0.0 
1.38254 1.36675 0.0 
2.58372 -1.06479 0.0 
4.70454 -3.6075 0.0 
0.551438 0.113173 0.0 
0.532912 -0.0384617 0.0 
-0.392031 -0.729994 0.0 
4.38556 1.53498 0.0 
-1.34387 -2.96962 0.0 
4.73748 -0.295427 0.0 
5.13252 -2.84762 0.0 
5.34987 1.08334 0.0 
0.326684 0.0802051 0.0 
1.0681 0.191919 0.0 
0.292684 0.0800176 0.0 
-0.288073 -0.693253 0.0 
0.850052 0.029488 0.0 
7.72674 -2.22661 0.0 
5.73402 0.253504 0.0 
3.27298 3.73283 0.0 
2.31769 -0.889324 0.0 
3.24694 -2.57408 0.0 
-0.795775 -5.8192 0.0 
0.667923 -0.0361302 0.0 
0.835769 0.0314682 0.0 
4.69839 -1.50939 0.0 
4.91709 3.01814 0.0 
0.151849 -0.0409087 0.0 
3.55148 0.264681 0.0 
0.842117 -0.794382 0.0 
2.65591 1.43349 0.0 
0.932811 0.0144733 0.0 
-0.764917 -0.926758 0.0 
3.60734 -0.915315 0.0 
-0.605852 0.649115 0.0 
5.76621 -0.263827 0.0 
3.08877 -0.924843 0.0 
0.899825 -0.00795866 0.0 
6.80384 1.26814 0.0 
3.19847 -0.826277 0.0 
0.0166341 -0.0962489 0.0 
3.983 -1.51439 0.0 
5.81155 1.05052 0.0 
0.403773 -0.0376754 0.0 
4.06583 -0.737319 0.0 
3.85222 3.16404 0.0 
7.27994 -0.917065 0.0 
7.01199 -1.44503 0.0 
5.44634 0.7472 0.0 
5.43495 -0.0201864 0.0 
1.51213 -0.834065 0.0 
1.97076 0.806002 0.0 
0.634487 0.0595385 0.0 
-0.572414 -4.29099 0.0 
1.8826 -0.733417 0.0 
0.759381 -0.180619 0.0 
0.40132 0.0778474 0.0 
0.23454 -0.0430222 0.0 
-0.802406 2.95957 0.0 
0.691963 0.0549995 0.0 
5.47277 -0.740356 0.0 
14.1487 4.94071 0.0 
0.0736498 -1.30758 0.0 
-3.24273 0.882011 0.0 
1.37104 -0.876055 0.0 
-0.483647 -0.194829 0.0 
2.83565 1.06937 0.0 
5.52957 -1.21731 0.0 
0.947149 -0.00912481 0.0 
-0.408161 -0.611461 0.0 
-0.824132 1.91234 0.0 
-0.28194 0.734853 0.0 
-2.58987 -0.112571 0.0 
5.39673 0.0810302 0.0 
0.347037 -1.34491 0.0 
1.28521 2.08402 0.0 
0.220369 -0.0424097 0.0 
-0.490215 0.575937 0.0 
1.64934 -1.3049 0.0 
0.153085 0.0664047 0.0 
-0.251695 -2.55503 0.0 
0.826156 -0.0139773 0.0 
3.35673 0.186652 0.0 
4.62807 -2.39408 0.0 
-1.05781 -1.39579 0.0 
-2.54531 4.21509 0.0 
1.60336 1.51116 0.0 
0.713093 0.0498095 0.0 
0.643534 0.0642145 0.0 
-3.64101 4.81173 0.0 
-1.26922 -3.94313 0.0 
-0.342655 -1.12768 0.0 
3.30326 0.952175 0.0 
5.64264 0.331249 0.0 
1.34559 -0.214642 0.0 
1.60527 0.321358 0.0 
0.328683 -0.0401423 0.0 
3.81728 0.37784 0.0 
4.37562 0.758715 0.0 
5.5831 -1.82905 0.0 
-1.49688 0.101849 0.0 
-1.70027 -0.343758 0.0 
0.937041 0.0136815 0.0 
5.60623 1.42522 0.0 
-1.23169 -0.42816 0.0 
1.69627 2.52442 0.0 
1.36245 -1.5082 0.0 
1.25107 -3.80948 0.0 
2.74679 0.528168 0.0 
5.36614 -1.19177 0.0 
0.605019 1.16677 0.0 
-4.58423 -1.62108 0.0 
-2.02651 2.34708 0.0 
3.99339 3.63024 0.0 
-1.36142 -0.0750085 0.0 
5.19766 -0.482867 0.0 
-3.85513 -1.43107 0.0 
0.966422 0.00919783 0.0 
0.247834 0.0870881 0.0 
-0.465649 -0.817954 0.0 
4.29025 4.26714 0.0 
1.18312 -0.431176 0.0 
9.21986 0.0258833 0.0 
5.39136 -0.625475 0.0 
5.56604 0.611257 0.0 
1.96388 -1.61685 0.0 
0.196106 -0.0423443 0.0 
2.93186 0.364486 0.0 
5.88518 0.822328 0.0 
0.824138 -0.0139123 0.0 
-0.47228 -0.526413 0.0 
0.477118 -0.0338206 0.0 
-4.64673 -2.62107 0.0 
4.10712 -0.887195 0.0 
0.710355 0.0501717 0.0 
1.64936 -0.864917 0.0 
-1.61346 -3.22424 0.0 
0.0092848 0.0284272 0.0 
7.26993 2.53793 0.0 
1.1048 2.83071 0.0 
10.1588 1.30502 0.0 
-0.263385 -0.26391 0.0 
13.7005 7 0.0 
0.52333 0.0703707 0.0 
4.58595 -1.29531 0.0 
5.62067 -0.188463 0.0 
0.799738 -0.0147854 0.0 
11.9625 -2.20661 0.0 
5.40435 0.619553 0.0 
3.28687 -1.45096 0.0 
0.458966 0.0872446 0.0 
5.51568 -0.596029 0.0 
-1.63011 3.37507 0.0 
0.293181 -0.0414659 0.0 
0.865321 -2.71027 0.0 
0.786038 -0.0158333 0.0 
0.0736186 0.0492692 0.0 
4.13993 -2.76136 0.0 
0.881421 -0.0921271 0.0 
0.266317 -3.38104 0.0 
4.88629 -0.852705 0.0 
0.437008 0.076424 0.0 
3.8816 4.12562 0.0 
7.92184 -0.0908268 0.0 
0.176354 -0.0480078 0.0 
-0.662142 0.143724 0.0 
6.26015 0.128606 0.0 
0.915518 -0.00670685 0.0 
3.62021 -1.04763 0.0 
1.34876 0.720027 0.0 
0.982357 -3.49725 0.0 
0.663709 0.0566737 0.0 
5.3066 -0.705713 0.0 
-0.944514 -3.61431 0.0 
1.79294 -0.661223 0.0 
-0.342215 2.27409 0.0 
5.88842 -0.367403 0.0 
0.211839 -0.0420107 0.0 
0.654413 -0.0369233 0.0 
3.68564 6.54289 0.0 
5.00064 1.8515 0.0 
0.69027 0.0546811 0.0 
1.12166 0.441142 0.0 
7.31715 -3.60167 0.0 
2.79958 1.64327 0.0 
0.433465 0.0764782 0.0 
0.584196 0.0652607 0.0 
0.0636322 -0.695974 0.0 
-1.81416 1.63551 0.0 
0.74075 0.0465749 0.0 
2.69342 -1.49048 0.0 
4.86008 -1.00044 0.0 
0.822907 -0.0142337 0.0 
-0.164664 0.307939 0.0 
4.48127 5.51069 0.0 
4.4895 -4.79993 0.0 
5.37438 1.55243 0.0 
0.123991 1.28664 0.0 
6.41782 -0.499678 0.0 
3.16721 -0.70129 0.0 
1.99155 -0.729552 0.0 
4.69954 4.16905 0.0 
-1.91695 -2.36563 0.0 
8.09216 1.16816 0.0 
0.242046 0.0802658 0.0 
2.34355 2.47663 0.0 
2.72841 -0.285972 0.0 
13.5916 6.05949 0.0 
1.64671 4.40597 0.0 
3.03209 1.84093 0.0 
-0.498111 0.662759 0.0 
0.765551 -2.10462 0.0 
5.25655 0.61914 0.0 
6.04759 -2.75505 0.0 
1.12471 -0.237361 0.0 
6.40695 -2.14103 0.0 
4.37139 0.883681 0.0 
0.240004 -0.042139 0.0 
-4.55867 -4.42627 0.0 
-1.09286 3.96435 0.0 
-1.07351 0.572111 0.0 
3.73338 -0.828021 0.0 
-0.766762 -0.403459 0.0 
0.402752 -1.68281 0.0 
0.925255 0.0164317 0.0 
0.88786 -0.943606 0.0 
0.505244 -0.025873 0.0 
-0.299243 0.0389379 0.0 
3.36416 0.723434 0.0 
0.636773 1.7916 0.0 
0.0435288 1.09333 0.0 
0.74756 2.65039 0.0 
5.12608 -1.02106 0.0 
3.05399 0.794214 0.0 
3.3685 -2.29577 0.0 
9.40833 4.18552 0.0 
0.726496 1.10014 0.0 
-1.43587 -0.265452 0.0 
1.53809 -0.965095 0.0 
3.65342 -1.2467 0.0 
3.58193 2.86195 0.0 
1.58453 1.05649 0.0 
0.69113 -0.0216886 0.0 
4.67304 -0.737386 0.0 
2.403 -2.53676 0.0 
-0.883615 -1.03632 0.0 
0.570985 0.067201 0.0 
4.5489 1.01634 0.0 
1.30188 0.95494 0.0 
4.78484 -2.98767 0.0 
0.647276 3.74647 0.0 
1.64058 -1.98991 0.0 
5.60464 1.66025 0.0 
-2.46641 -2.76999 0.0 
0.0236771 0.0292808 0.0 
1.83737 -2.85625 0.0 
0.712397 -0.0207427 0.0 
-0.929233 -3.15638 0.0 
5.62429 -0.0217768 0.0 
0.696715 -0.0236006 0.0 
4.31467 0.462465 0.0 
1.90518 -1.00498 0.0 
3.8123 -0.317197 0.0 
-1.40698 0.43063 0.0 
8.12686 0.163945 0.0 
0.0912505 -0.0517404 0.0 
0.360402 0.0788181 0.0 
0.766222 5.08386 0.0 
0.543306 0.227627 0.0 
0.768677 -0.887089 0.0 
13.8069 6.49329 0.0 
3.14545 -0.527242 0.0 
3.00213 0.685174 0.0 
-3.26851 -1.17579 0.0 
0.326091 -0.0407782 0.0 
-0.350969 -1.28117 0.0 
-1.34372 -4.38367 0.0 
-1.47047 0.274883 0.0 
8.69891 -0.824176 0.0 
0.572752 0.0666296 0.0 
3.02391 1.56815 0.0 
0.546825 -0.0304958 0.0 
7.53034 -2.92118 0.0 
0.862614 -3.9233 0.0 
7.46433 -0.686568 0.0 
0.435695 0.0763326 0.0 
-0.291216 -0.600905 0.0 
0.958024 -0.00418663 0.0 
0.996359 0.00209859 0.0 
-3.04054 -1.35802 0.0 
7.86523 -1.29492 0.0 
0.824153 0.0339519 0.0 
-2.0843 -1.39076 0.0 
2.0242 4.23744 0.0 
6.10554 -1.09258 0.0 
0.070474 0.0518922 0.0 
0.253412 0.0852338 0.0 
4.90662 -3.37133 0.0 
5.3389 -1.37998 0.0 
8.18441 -5.4394 0.0 
4.74018 -1.11041 0.0 
-1.45792 -1.69797 0.0 
-0.658439 1.28669 0.0 
-1.47154 1.02941 0.0 
0.548603 -1.30682 0.0 
-4.28372 4.01846 0.0 
0.597388 -0.031556 0.0 
0.976283 3.91053 0.0 
-1.97604 3.44687 0.0 
-0.823498 -1.2495 0.0 
-0.676338 -0.322971 0.0 
0.0194499 -2.00073 0.0 
6.06625 2.2173 0.0 
4.77636 1.32682 0.0 
3.5286 -1.40716 0.0 
2.2348 6.10147 0.0 
4.3501 1.14584 0.0 
-0.374853 0.997283 0.0 
0.331239 -0.0398749 0.0 
2.92416 0.944765 0.0 
-1.08711 -0.79613 0.0 
-2.10643 0.811211 0.0 
10.0853 -2.20029 0.0 
9.19723 -1.4685 0.0 
-3.63493 -2.23583 0.0 
9.13289 -4.40814 0.0 
0.13646 -0.0401233 0.0 
3.73879 -1.49966 0.0 
1.16246 1.31001 0.0 
1.76621 -0.985528 0.0 
0.279409 0.0783782 0.0 
4.49882 0.813878 0.0 
0.0773295 0.0501322 0.0 
-1.7711 -2.7915 0.0 
2.21785 -2.83793 0.0 
1.9729 0.35934 0.0 
6.07917 0.172121 0.0 
-1.06801 -1.19434 0.0 
-0.742511 -0.787541 0.0 
4.55801 -0.996424 0.0 
10.0032 -3.21238 0.0 
4.23955 3.27 0.0 
4.4588 0.213546 0.0 
-3.41169 -1.50587 0.0 
0.374392 0.944982 0.0 
[...]
<PointData>
  <DataArray type = "Float64" Name="VitesseP1" NumberOfComponents="3" format="ascii">
1 0 0.0 
1.00103 0 0.0 
0.999041 0 0.0 
1 0 0.0 
0.997613 -0.00182324 0.0 
1.00618 -0.00610575 0.0 
0.983562 -0.00255017 0.0 
1.00116 -0.000893243 0.0 
1.00677 -0.00104834 0.0 
0.624584 0.0384422 0.0 
1.00103 -0.00114173 0.0 
0.999941 -0.00366977 0.0 
0.0115131 0.000356589 0.0 
0 0 0.0 
0.942903 -0.00220414 0.0 
0.0875392 0.00545656 0.0 
1.0049 -0.00563165 0.0 
1.00194 -0.00273647 0.0 
1.00144 -0.00572125 0.0 
1.00009 -0.000177498 0.0 
0.149028 0.0100262 0.0 
0.999511 0.0013278 0.0 
0.0777185 0.00947569 0.0 
1.00086 -0.00591942 0.0 
1.25558e-08 -4.79563e-10 0.0 
0.997749 -0.00303418 0.0 
3.13086e-08 6.97059e-09 0.0 
0.845512 -0.00411426 0.0 
1.13955 -0.112934 0.0 
0.0181999 0.00170182 0.0 
1.00113 -0.000884154 0.0 
0.997396 -0.00453188 0.0 
1.01451 -0.0171556 0.0 
0.98249 0.00829389 0.0 
1.00272 0.00824509 0.0 
0.0132016 0.000624252 0.0 
0.999302 -0.0119554 0.0 
1.00315 0.018668 0.0 
1.00097 -0.00419973 0.0 
1.01666 0.012205 0.0 
1.00056 -0.00155693 0.0 
1.00531 -0.00282042 0.0 
1.00087 -0.00446098 0.0 
0.997263 0.000717874 0.0 
1.00129 -0.001255 0.0 
1.001 -0.000606245 0.0 
0.174216 0.0175579 0.0 
0.998532 -0.00423341 0.0 
0.998384 0.00266931 0.0 
1.00091 -0.000449977 0.0 
1.02347 -0.0133597 0.0 
0.411674 -0.0405523 0.0 
1.00536 -0.00371567 0.0 
1.00101 -0.00335906 0.0 
0.0308705 0.00188188 0.0 
0.999822 0.000424599 0.0 
1.00102 -0.00385709 0.0 
1.00092 -0.0107686 0.0 
1.00178 -0.00301263 0.0 
0.993597 0.00920802 0.0 
1.00038 0.00333745 0.0 
1.00072 -0.00450847 0.0 
-3.0413e-09 -6.39352e-10 0.0 
1.00076 -0.000775013 0.0 
1.0011 -0.00342266 0.0 
-0.00084001 0.000158002 0.0 
3.21869e-08 -4.25375e-10 0.0 
0 0 0.0 
0.999186 0.00108276 0.0 
1.00082 -0.000892749 0.0 
1.00106 -0.00419329 0.0 
0.980884 -0.00450346 0.0 
0.98614 -0.00878224 0.0 
1.0173 0.00497481 0.0 
0 0 0.0 
1.00235 -0.00264704 0.0 
1.00016 -0.00103398 0.0 
0.987596 0.00632856 0.0 
1.00173 -0.0022554 0.0 
1.00007 -0.000743251 0.0 
1.00101 -0.00269736 0.0 
0 0 0.0 
0.991819 -0.0047931 0.0 
1.01227 -0.00380413 0.0 
3.41971e-08 1.56759e-09 0.0 
1.00983 -0.00812175 0.0 
1.00008 -0.00190653 0.0 
1.00195 -0.00117573 0.0 
1.13221 -0.0689941 0.0 
0.38826 0.0202748 0.0 
0.994808 -0.00947106 0.0 
1.00095 -0.00376011 0.0 
0.999873 -0.000795119 0.0 
1.00208 -0.0029059 0.0 
1.00226 -0.00149263 0.0 
1.00031 -0.00445335 0.0 
0.116114 0.000464816 0.0 
0.996748 -0.0612583 0.0 
0.148831 0.0037113 0.0 
0.995567 -0.0118898 0.0 
-1.04117e-09 1.66422e-11 0.0 
1.00423 -0.000725102 0.0 
1.00633 -0.00656162 0.0 
1.00149 -0.00159383 0.0 
0.99939 -0.00178981 0.0 
1.00138 -0.00139924 0.0 
1.00036 -0.000209398 0.0 
0.595471 0.034495 0.0 
0 0 0.0 
1.00204 -0.00227 0.0 
1.00028 -0.00242124 0.0 
0 0 0.0 
1.00062 -0.0044835 0.0 
1.00562 0.00446733 0.0 
1.00284 -0.00560558 0.0 
0 0 0.0 
0.995371 -0.00384538 0.0 
1.00134 -0.00262804 0.0 
0.999103 0.0191086 0.0 
1.00328 -0.00465746 0.0 
1.00075 -0.00249169 0.0 
0 0 0.0 
0.998258 -0.00513294 0.0 
1.00086 -0.00266168 0.0 
0.994449 -0.170116 0.0 
1.0016 -0.00221261 0.0 
0.999502 -0.00505015 0.0 
0 0 0.0 
1.00168 -0.00277344 0.0 
1.00127 -0.00214489 0.0 
1.00637 -0.00318211 0.0 
1.00411 -0.0023184 0.0 
1.00045 -0.00492285 0.0 
0.912248 -0.00335333 0.0 
0.998571 0.00168081 0.0 
1.00305 -0.0107064 0.0 
0 0 0.0 
1.00039 -0.000560777 0.0 
0.997769 -0.000705007 0.0 
1.01644 0.0358154 0.0 
0 0 0.0 
0.0477925 0.000485714 0.0 
1.00353 0.00260818 0.0 
0.0612618 -0.00758754 0.0 
1.00261 -0.00307439 0.0 
0.9989 0.000326841 0.0 
1.00223 -0.00430737 0.0 
0.999775 0.00197283 0.0 
0.999507 0.00242214 0.0 
0.976355 -0.00297273 0.0 
1.00207 -0.00581645 0.0 
1.00271 -0.00237271 0.0 
0.160665 0.0106489 0.0 
0.991887 -0.0104377 0.0 
1.00487 0.00585361 0.0 
1.00894 0.0247722 0.0 
0.998652 0.00214915 0.0 
0.971167 -0.00905683 0.0 
1.00313 -0.00268006 0.0 
1.00765 -0.00316542 0.0 
7.97655e-09 -1.80175e-10 0.0 
0.998717 0.0236504 0.0 
1.00017 7.19473e-05 0.0 
0 0 0.0 
1.00046 -0.00144216 0.0 
0.025205 0.00191986 0.0 
0.999825 -0.00466065 0.0 
1.002 -0.00176918 0.0 
0.997808 -0.00195787 0.0 
1.00071 0.00106895 0.0 
1.00762 -0.00706317 0.0 
0 0 0.0 
0.251829 -0.027245 0.0 
1.00019 0.000480419 0.0 
1.00018 -0.000541678 0.0 
0.999133 -0.00587203 0.0 
1.00152 -0.00488257 0.0 
0.998756 -0.00357877 0.0 
0.985411 0.00391086 0.0 
0.996639 -0.0179438 0.0 
0 0 0.0 
1.0008 -0.00430953 0.0 
1.00108 -0.00417144 0.0 
1.00257 -0.00197183 0.0 
0.995608 0.0050129 0.0 
0.996212 0.00233615 0.0 
0 0 0.0 
0.999712 -0.00423514 0.0 
0.993711 0.00138341 0.0 
1.00517 -0.00279049 0.0 
1.00114 -5.72783e-06 0.0 
1.00094 -0.000696347 0.0 
1.00068 -0.00638429 0.0 
1.00255 -0.00266805 0.0 
1.0213 -0.00161508 0.0 
0.999981 0.000101965 0.0 
1.00143 0.00327764 0.0 
1.00092 -0.00174334 0.0 
0.994185 0.00416407 0.0 
1.00243 -0.00256615 0.0 
0.999791 0.0003263 0.0 
-0.0125933 0.00255462 0.0 
1.09446 0.0825178 0.0 
0.995557 -0.00758398 0.0 
1.00053 -0.00130718 0.0 
0.994921 0.00996227 0.0 
0.995592 0.00704052 0.0 
1.00336 -0.00351582 0.0 
1.00124 -0.00495899 0.0 
1.0006 -0.000700197 0.0 
2.0032e-08 -9.77238e-10 0.0 
1.0003 -0.00567683 0.0 
1.00066 -0.00483924 0.0 
0.0169082 0.00110808 0.0 
0.989227 -0.00914216 0.0 
0 0 0.0 
0.999996 1.55855e-05 0.0 
1.00174 -0.00265839 0.0 
0 0 0.0 
0.998563 0.000722551 0.0 
0.999938 -0.000627181 0.0 
0.69015 0.504296 0.0 
0.997668 -0.00248249 0.0 
1.0054 -0.00112987 0.0 
0.99595 0.00244096 0.0 
0.973222 -0.0216889 0.0 
0.998802 0 0.0 
0 0 0.0 
1.00196 -0.00238751 0.0 
0.991264 -0.00105536 0.0 
0 0 0.0 
1.00147 0.0017476 0.0 
1.00056 -0.00464339 0.0 
1.00108 -0.0020349 0.0 
0.858481 -0.0387739 0.0 
1.00201 -0.00219163 0.0 
1.00181 0.00200876 0.0 
1.78906e-08 8.20207e-10 0.0 
1.00107 -0.000990226 0.0 
0 0 0.0 
6.98031e-08 2.11075e-08 0.0 
1.00177 -0.00156068 0.0 
1.00081 0.0466969 0.0 
1.0007 -0.000900919 0.0 
1.00221 -0.0026468 0.0 
0 0 0.0 
1.00085 -0.00134545 0.0 
0.991437 -0.00810615 0.0 
0.696114 -0.0260676 0.0 
0.984413 0.0130844 0.0 
0.983983 -0.00610685 0.0 
0 0 0.0 
1.0013 -0.00250707 0.0 
1.00944 -0.019086 0.0 
1.00091 -0.000789764 0.0 
0.00473441 -0.000572159 0.0 
1.00199 -0.00251344 0.0 
1.00023 -0.000713444 0.0 
0.996973 -0.000384375 0.0 
1.00628 0.00376359 0.0 
1.01019 -0.00668936 0.0 
0 0 0.0 
0.599847 0.0344085 0.0 
1.00041 -0.000150945 0.0 
1.00043 -0.00356257 0.0 
0.0424776 -0.00520662 0.0 
1.01184 -0.0354862 0.0 
1.00298 -0.000504821 0.0 
1.00293 -0.00485849 0.0 
0 0 0.0 
8.07167e-09 -5.29699e-10 0.0 
1.00588 -0.0134797 0.0 
1.00129 0.00474203 0.0 
0.00307021 -0.000411864 0.0 
1.00065 -0.0015607 0.0 
1.00219 -0.00259852 0.0 
0.0267838 0.00160008 0.0 
0.989798 0.0599319 0.0 
1.0002 -0.000625222 0.0 
1.00175 -0.00073304 0.0 
1.00011 -0.00398884 0.0 
1.01592 0.00752784 0.0 
1.01006 -0.00604607 0.0 
1.00068 -0.00284142 0.0 
0.997984 -0.00120864 0.0 
1.00026 -0.00143794 0.0 
0.999442 -0.000524056 0.0 
0.994789 -0.00301554 0.0 
0.553741 0.0405315 0.0 
1.00366 -0.00329286 0.0 
0.999644 -0.00377159 0.0 
0.998773 0.000146869 0.0 
1.00215 -0.000678114 0.0 
1.00264 -0.00417867 0.0 
1.00072 0.021618 0.0 
1.00141 -0.00113469 0.0 
1.00038 -0.00492307 0.0 
1.00278 -0.00135752 0.0 
0.986372 0.0172674 0.0 
1.00317 -0.00162076 0.0 
1.00107 -0.0041403 0.0 
0 0 0.0 
1 -2.86166e-05 0.0 
1.00197 0.00134083 0.0 
0.996781 0.0106334 0.0 
1.00145 -0.00271625 0.0 
0.98908 -0.00160896 0.0 
1.00207 -0.00196746 0.0 
-2.69757e-08 4.27633e-09 0.0 
1.00426 0.00259989 0.0 
0 0 0.0 
0.952674 0.0174783 0.0 
1.00121 -0.00485222 0.0 
1.0117 -0.000344549 0.0 
1.01825 0.0122155 0.0 
1.0063 -0.000316839 0.0 
1.00218 -0.00253005 0.0 
1.00136 -0.00546472 0.0 
1.00135 -0.00155718 0.0 
0.997871 -0.000186387 0.0 
1.02151 -0.00504816 0.0 
0.994913 0.00272703 0.0 
0.999267 0.00114148 0.0 
1.00131 -0.00233982 0.0 
1.00163 -0.00247366 0.0 
1.0078 -0.0114086 0.0 
0 0 0.0 
1.00205 -0.00270933 0.0 
1.00111 -0.000995282 0.0 
0.996296 -0.00298385 0.0 
0.0281979 -0.00219784 0.0 
1.00093 -0.00410268 0.0 
1.01207 -0.0141511 0.0 
1.00205 -0.00144212 0.0 
1.00334 4.10858e-05 0.0 
1.00098 -0.000640365 0.0 
0.99986 -0.00389362 0.0 
0.999712 -0.000281847 0.0 
5.76037e-08 2.91046e-08 0.0 
1.00112 -0.000826049 0.0 
2.50227e-08 1.89469e-09 0.0 
1.00013 -0.000888241 0.0 
0.925301 -0.00263267 0.0 
0.0848282 0.00558138 0.0 
1.00099 -0.00418317 0.0 
0.999138 -0.000472275 0.0 
1.00168 -0.00317155 0.0 
0.99654 0.00700814 0.0 
0.986276 -0.00857586 0.0 
1.14159 -0.155191 0.0 
1.22597e-08 5.54188e-10 0.0 
1.0017 -5.17512e-05 0.0 
1.10738 -0.0389241 0.0 
1.00609 0.00241804 0.0 
0.998811 7.74117e-05 0.0 
1.00067 -0.00311836 0.0 
1.00121 -0.00561492 0.0 
0.999464 0.000579013 0.0 
0.0124762 0.000615865 0.0 
0.999355 -0.00465775 0.0 
1.00022 -0.000436657 0.0 
0.996153 0.00594871 0.0 
1.0106 0.00151198 0.0 
0.00857583 -0.000987797 0.0 
1.00239 -0.00466465 0.0 
0 0 0.0 
1.00343 -0.000565665 0.0 
1.00083 -0.000692047 0.0 
1.00737 -0.00432989 0.0 
0 0 0.0 
0.9936 -0.0138596 0.0 
0 0 0.0 
0 0 0.0 
0.999332 0.000475986 0.0 
1.00544 -0.00145052 0.0 
0.00058646 -0.000103307 0.0 
0.99849 6.22366e-05 0.0 
1.00209 -0.00096516 0.0 
1.00295 -0.002692 0.0 
0.797372 0.251757 0.0 
0.959792 0.0669702 0.0 
1.00206 -0.00126103 0.0 
1.00243 -0.00238001 0.0 
1.00247 -1.82535e-05 0.0 
1.00207 -0.00247263 0.0 
0.998577 -0.00103191 0.0 
1.00545 0.0106094 0.0 
0.999905 0.00708101 0.0 
1.00353 -0.0015372 0.0 
1.00004 0.000392771 0.0 
0.187694 0.0108432 0.0 
1.00302 -0.000326099 0.0 
1.00141 0.0018698 0.0 
0.997419 -0.00295868 0.0 
0.986153 -0.00186468 0.0 
1.00088 -0.00208074 0.0 
0.999047 -0.00334343 0.0 
1.00058 -0.00398051 0.0 
1.00126 -0.00217128 0.0 
1.00095 -0.000238324 0.0 
1.00092 -0.00402115 0.0 
1.00871 0.0163031 0.0 
0 0 0.0 
1.00176 -0.00570073 0.0 
0.99478 -0.00128216 0.0 
0.999191 0.00440865 0.0 
1.00309 0.00188305 0.0 
1.00446 0.00199908 0.0 
0.999824 7.91592e-05 0.0 
1.00267 0.000308715 0.0 
0 0 0.0 
1.00144 -0.00217462 0.0 
1.01261 -0.00793508 0.0 
0.999041 3.6071e-05 0.0 
0 0 0.0 
1.00105 -0.00417759 0.0 
0 0 0.0 
0.999707 -0.000609475 0.0 
1.00116 -0.000884879 0.0 
0.998547 -0.01133 0.0 
0.988713 -0.0103126 0.0 
0.996985 -0.00198774 0.0 
0.994052 -0.00417185 0.0 
1.002 -0.00256878 0.0 
1.00278 0.00103801 0.0 
1.00087 -0.00209189 0.0 
1.00066 -0.0041576 0.0 
0.999604 0.000357475 0.0 
1.02774 0.00556238 0.0 
0 0 0.0 
1.00061 0.00139031 0.0 
1.02216 0.015888 0.0 
1.00717 0.0017296 0.0 
0.998535 0.0133278 0.0 
1.00032 -0.00132498 0.0 
0.0114857 -0.00167644 0.0 
1.00178 -0.00236381 0.0 
1.00798 -0.00877912 0.0 
1.00099 0.00167466 0.0 
0.9957 -0.000528746 0.0 
4.31573e-08 8.26455e-10 0.0 
1.00176 0.0014733 0.0 
1.00085 -0.00416666 0.0 
0 0 0.0 
1.00034 -0.00195014 0.0 
1.00283 0.00628245 0.0 
2.6149e-07 -9.2007e-09 0.0 
1.00047 -0.0025572 0.0 
1.00217 -0.0028324 0.0 
0.998999 -0.00291201 0.0 
0.0183074 0.000491352 0.0 
1.00789 0.00148501 0.0 
1.0024 -0.000166772 0.0 
1.00258 0.00329642 0.0 
1.01452 0.00155281 0.0 
1.00147 0.000637616 0.0 
1.00029 -0.00106693 0.0 
1.00238 0.000225669 0.0 
1.00023 0.00402266 0.0 
1.00146 -0.00258335 0.0 
0.108181 0.0203418 0.0 
1.00108 -0.00116976 0.0 
0.283374 0.0217435 0.0 
1.0017 -0.000874531 0.0 
1.00014 0.00118545 0.0 
1.00016 0.00278524 0.0 
1.00131 -0.000599782 0.0 
1.00313 -0.00200265 0.0 
1.00004 0.00191909 0.0 
0.997337 0.00456393 0.0 
1.00221 -0.000248571 0.0 
1.02498 -0.00783912 0.0 
1.00025 -0.000813087 0.0 
1.00096 0.00230982 0.0 
0 0 0.0 
1.00029 -0.00376368 0.0 
1.00114 -0.00470189 0.0 
0.999355 0.00196027 0.0 
1.00549 0.0219551 0.0 
1.00009 -0.00619913 0.0 
0.99864 -0.000365149 0.0 
1.00253 -0.0010604 0.0 
0.95489 -0.00252102 0.0 
0.966002 0.00014963 0.0 
8.79566e-09 1.78404e-10 0.0 
1.00282 0.00216682 0.0 
1.00105 -0.00428095 0.0 
1.00304 -0.00168171 0.0 
1.00417 -0.000915596 0.0 
0.995915 0.00373248 0.0 
0 0 0.0 
0.996823 -0.000514794 0.0 
0.999897 0.000496083 0.0 
1.0018 -0.00287735 0.0 
0 0 0.0 
0.999978 6.77493e-05 0.0 
0.999257 -0.00172785 0.0 
1.00236 -0.00134073 0.0 
0.999221 -0.000942966 0.0 
1.00121 -0.000813116 0.0 
1.00635 -0.00477943 0.0 
0.937005 -0.000198045 0.0 
1.00001 -0.00290451 0.0 
1.00329 0.000173926 0.0 
1.00161 -0.00358522 0.0 
0.998878 0.000143655 0.0 
1.0011 -0.000830142 0.0 
1.0016 -0.00208641 0.0 
1.00001 0.00444825 0.0 
1.0029 -0.00459582 0.0 
0.998598 0.000252102 0.0 
1.00163 -0.000934485 0.0 
1.00176 -0.002575 0.0 
1.00009 0.000344868 0.0 
0.0903496 -0.00559787 0.0 
1.035 -0.0447243 0.0 
1.00231 -0.000294987 0.0 
1.00003 0.00165858 0.0 
0.143683 -0.0081816 0.0 
1.00083 -0.00340224 0.0 
0.566792 -0.0550342 0.0 
1.00261 -0.00321181 0.0 
1.00004 -0.000147987 0.0 
0.997795 0.0032897 0.0 
1.0008 -0.00115353 0.0 
1.00232 -0.00424677 0.0 
0.00957985 0.000377685 0.0 
1.00062 -0.000241027 0.0 
1.00042 -0.00177072 0.0 
1.00299 -0.00129276 0.0 
0.994079 0.00533703 0.0 
1.0019 -0.00707457 0.0 
1.00031 -0.00395662 0.0 
1.00456 0.00386106 0.0 
1.00097 -0.00452504 0.0 
0.999473 -0.0155056 0.0 
1.00246 0.00174253 0.0 
0.996487 0.000316306 0.0 
1.00083 0.00129599 0.0 
6.44325e-09 5.01809e-10 0.0 
0.99891 7.72053e-05 0.0 
8.19486e-08 3.83115e-08 0.0 
0.999977 -0.00155897 0.0 
0.992031 0.00492565 0.0 
1.00286 -0.0018453 0.0 
1.00265 -0.00231327 0.0 
1.00095 -0.00126224 0.0 
1.0021 -0.0106405 0.0 
0 0 0.0 
0.998625 0.000464659 0.0 
0.994481 -0.000833589 0.0 
0.999277 0.000957179 0.0 
0.0903329 0.00134562 0.0 
0.0222096 0.00109562 0.0 
0 0 0.0 
1.00131 0.001116 0.0 
0.997819 -0.00152906 0.0 
0.999888 -0.000498218 0.0 
1.00124 -0.00104664 0.0 
1.00355 -0.0021748 0.0 
1.00076 -0.00231775 0.0 
0.997863 1.03097e-05 0.0 
1.00058 -0.00089016 0.0 
0.999178 -0.001577 0.0 
0.0519423 -0.00719092 0.0 
0.99906 0.000650362 0.0 
1.00372 -0.00515912 0.0 
1.01334 0.00477071 0.0 
1.00362 5.06774e-05 0.0 
0.998982 -6.74324e-05 0.0 
1.00077 -0.00386105 0.0 
1.00195 -0.00370789 0.0 
1.00115 -0.00291983 0.0 
1.00083 0.00064658 0.0 
0.996772 -0.00159485 0.0 
1.00041 -0.00614321 0.0 
1.00357 -0.00304118 0.0 
1.00229 -0.00164629 0.0 
1.00156 -0.00136934 0.0 
1.00072 -0.000876966 0.0 
0.985869 -0.00572501 0.0 
0.999963 -0.00779426 0.0 
1.00476 -0.000967117 0.0 
1.00036 -0.00790551 0.0 
1.00413 -0.00725762 0.0 
1.00234 0.00404362 0.0 
1.00503 0.015552 0.0 
1.01771 0.000261617 0.0 
1.00164 -0.00484815 0.0 
0.486459 0.186735 0.0 
1.00439 0.0038766 0.0 
1.00043 -0.00079732 0.0 
0.998991 -0.00772644 0.0 
1.00221 -0.000676808 0.0 
1.00001 0.000494538 0.0 
1.00127 -0.00481112 0.0 
1.00159 -0.00077732 0.0 
1.00539 -0.00047192 0.0 
1.00221 0.00259167 0.0 
1.00379 -0.00118909 0.0 
2.61211e-08 -3.29947e-09 0.0 
0.998348 -0.00625059 0.0 
0.997476 -0.000547869 0.0 
1.00335 -0.00714017 0.0 
0.999778 -0.000406479 0.0 
1.00058 0.000148677 0.0 
1.00301 -0.0011997 0.0 
1.00375 0.00227327 0.0 
1.00171 -0.0033889 0.0 
1.00149 -0.00448279 0.0 
0.998356 -0.00153788 0.0 
0.999933 0.00112048 0.0 
1.0013 -0.0050407 0.0 
1.00495 0.000882873 0.0 
0.999896 -0.00261151 0.0 
1.00036 -0.0027577 0.0 
0.996019 0.0015613 0.0 
1.00042 0.00599285 0.0 
1.00343 -0.00117862 0.0 
0 0 0.0 
1.00081 0.00366999 0.0 
0.999205 -0.00123924 0.0 
1.00102 -0.00408599 0.0 
4.96872e-09 -8.84033e-11 0.0 
1.00043 -0.000361073 0.0 
0.999334 -0.00309522 0.0 
0.994648 -0.00156183 0.0 
1.00113 -0.0025093 0.0 
0.999104 -0.00721976 0.0 
1.00129 -0.000897408 0.0 
1.00018 0.000584133 0.0 
0 0 0.0 
1.00283 -0.00236005 0.0 
1.00034 -0.00235711 0.0 
1.00108 -0.00173628 0.0 
1.00623 -0.00476043 0.0 
0.991841 -0.000312671 0.0 
0.999922 0.000234471 0.0 
1.0009 -0.000297194 0.0 
1.00147 -0.0033428 0.0 
1.00062 -0.00423495 0.0 
1.00742 -0.0332977 0.0 
0.996942 0.00169624 0.0 
1.0012 -0.00267691 0.0 
1.00258 -9.23746e-05 0.0 
1.00122 -0.000146246 0.0 
0.927926 -0.00567265 0.0 
0 0 0.0 
1.0015 0.000732804 0.0 
0.999213 0.00186492 0.0 
0.989103 0.00275258 0.0 
1.00294 0.000337323 0.0 
1.00086 -0.00444701 0.0 
1.00196 -0.00210508 0.0 
0.999687 0.000136458 0.0 
1.00237 -2.34247e-05 0.0 
0.999291 0.00386448 0.0 
1.00193 -0.00225663 0.0 
0.999709 -0.000566489 0.0 
1.00437 -0.00385214 0.0 
0.999467 -0.000411336 0.0 
1.00177 -0.000606068 0.0 
0.0140568 0.000825235 0.0 
1.0144 -0.00376688 0.0 
1.0087 -0.00467769 0.0 
1.01319 -0.00843524 0.0 
1.00198 -0.000217543 0.0 
1.00405 -0.00822825 0.0 
1.00264 -0.00291414 0.0 
0 0 0.0 
1.0011 -0.00138373 0.0 
0.73287 -0.136304 0.0 
1.0415 -0.0463398 0.0 
0.997445 0.00572861 0.0 
1.00002 -3.94094e-05 0.0 
0.997792 -0.00516686 0.0 
0.990235 0.000348253 0.0 
1.00083 0.00971163 0.0 
1.00258 -0.000535508 0.0 
0.326931 0.033308 0.0 
1.00148 0.00401033 0.0 
1.00172 -0.00168141 0.0 
1.00187 -0.00219755 0.0 
1.00093 -0.0035819 0.0 
0 0 0.0 
0.999277 -0.000324045 0.0 
1.0011 -0.000694803 0.0 
0.999332 0.00588129 0.0 
0.999763 -0.00234248 0.0 
1.00137 -0.000921317 0.0 
1.0001 -0.00146617 0.0 
1.00237 -0.00347995 0.0 
0.995435 -0.0131367 0.0 
0.999986 0.00110585 0.0 
0.998709 0.00309259 0.0 
0.997318 1.13062e-05 0.0 
1.00099 -0.000521388 0.0 
1.00091 -0.00103258 0.0 
1.00154 0.00105822 0.0 
1.05053 -0.223316 0.0 
0.997282 -0.00668752 0.0 
0.998504 0.00568454 0.0 
1.00001 0.000337917 0.0 
1.00656 -0.00280255 0.0 
1.00191 0.00286707 0.0 
1.00195 -0.000414623 0.0 
0.999812 -0.000924792 0.0 
1.00128 0.00272296 0.0 
1.00416 -0.026872 0.0 
1.00251 -0.00255706 0.0 
1.00134 -0.000875838 0.0 
0.999261 0.000794089 0.0 
0.991184 0.00123008 0.0 
1.00091 0.00137191 0.0 
1.00072 -0.000348585 0.0 
0.989347 -0.000555896 0.0 
1.00143 -0.00121854 0.0 
0.998988 -0.00583032 0.0 
1.00185 -0.00104887 0.0 
0.99898 -0.00210309 0.0 
1.00211 0.000535472 0.0 
1.00124 -0.00340561 0.0 
1.00065 -0.000992983 0.0 
1.00066 0.000534619 0.0 
1.00093 -0.000434845 0.0 
1.00045 -0.00100005 0.0 
0.999871 0.0016253 0.0 
1.00037 0.00137271 0.0 
1.0017 0.00124206 0.0 
1.00136 -0.000491539 0.0 
1.00112 -0.000753249 0.0 
0.998406 0.00170572 0.0 
1.00098 0.00118597 0.0 
1.00181 0.00240498 0.0 
0.999989 -0.000149504 0.0 
1.00107 -0.000610029 0.0 
0.998231 0.00180894 0.0 
0.999996 -2.52942e-05 0.0 
0.99971 -0.00168304 0.0 
1.00019 -0.000335924 0.0 
1.00003 -4.7942e-05 0.0 
1.00085 -0.0012004 0.0 
0.998695 8.22134e-05 0.0 
0 0 0.0 
1.00065 -0.00266272 0.0 
0.999306 0.00240275 0.0 
0.999593 -0.000417048 0.0 
0.99784 -0.000598048 0.0 
1.0023 -0.00149813 0.0 
1.0001 -0.000109774 0.0 
1.00202 -0.00185957 0.0 
1.00224 -0.00117533 0.0 
0 0 0.0 
1.00069 0.00204522 0.0 
1.05026 -0.0724877 0.0 
1.00162 -0.00118378 0.0 
1.00111 -0.000812447 0.0 
0.998296 0.000167446 0.0 
1.00001 0.000146681 0.0 
0.999999 -0.0109711 0.0 
1.00167 -0.0038561 0.0 
1.00063 -0.000376793 0.0 
0 0 0.0 
1.00147 -0.00136663 0.0 
0.996776 -0.000510435 0.0 
1.00096 0.00088769 0.0 
0.999054 0.00177853 0.0 
1.00525 -0.00466132 0.0 
1.00109 -0.000479563 0.0 
0.999512 -0.00603063 0.0 
0.997511 0.0548282 0.0 
0.995914 0.00385207 0.0 
0.998592 -0.00404191 0.0 
1.00117 -0.00369001 0.0 
1.0017 0.00505905 0.0 
1.00248 -0.00224968 0.0 
1.00422 0.00202376 0.0 
0.992762 -0.00279699 0.0 
0.999099 -0.000350678 0.0 
1.00179 -0.00155455 0.0 
1.00273 -0.000239595 0.0 
1.00105 -0.00266514 0.0 
1.00103 -0.000361598 0.0 
1.00052 -7.36611e-05 0.0 
0.999501 -0.00102446 0.0 
1.00069 0.000768042 0.0 
1.00178 0.0326185 0.0 
1.00142 0.000470335 0.0 
-2.36945e-09 2.5001e-11 0.0 
1.00047 0.00177862 0.0 
1.00013 -0.00273938 0.0 
1.00366 0.00564494 0.0 
1.0071 -0.00460948 0.0 
1.00014 -0.000483262 0.0 
1.00028 -0.00127319 0.0 
1.00059 -0.00340937 0.0 
0.999283 -0.00225847 0.0 
1.00279 0.00144746 0.0 
0.999441 -0.000711546 0.0 
0.994653 0.00321949 0.0 
0.999955 -0.00376394 0.0 
0.99947 0.000263335 0.0 
1.00107 -0.00419356 0.0 
0.983302 -0.00896508 0.0 
0.999661 -0.0044982 0.0 
0.997691 -0.00437139 0.0 
1.00171 -0.00140231 0.0 
1.00101 -0.00104119 0.0 
0.998685 -0.000670921 0.0 
1.00126 -0.00467892 0.0 
0.999981 0.00136201 0.0 
0.998442 0.000453739 0.0 
0.994521 0.00267635 0.0 
0.180864 -0.0164859 0.0 
1.00317 -0.000617212 0.0 
1.00147 -0.00021883 0.0 
0.997323 0.001395 0.0 
0.996513 -0.00094586 0.0 
0.998618 -0.000125967 0.0 
1.00144 0.00136174 0.0 
1.00007 -0.000368587 0.0 
0.999106 -0.00486177 0.0 
0.998666 0.000193733 0.0 
0.0275925 -0.00363714 0.0 
1.00074 -4.52527e-05 0.0 