<VTKFile type="UnstructuredGrid" version="0.1" byte_order="LittleEndian">
  <UnstructuredGrid>
    <Piece NumberOfPoints="23679" NumberOfCells="47236">
      <Points>
        <DataArray type = "Float64" NumberOfComponents="3" format="ascii">
-5 -7 0.0 
15.5 -7 0.0 
15.5 7 0.0 
-5 7 0.0 
7.63511 2.91639 0.0 
1.87049 1.67084 0.0 
-0.605974 -0.287769 0.0 
2.37337 -3.10656 0.0 
0.929906 2.48659 0.0 
0.824948 -0.0289232 0.0 
0.579762 -2.6174 0.0 
2.75639 -0.320238 0.0 
0.600589 -0.0279367 0.0 
0.809974 0.0358912 0.0 
4.52511 -0.0925724 0.0 
0.692729 -0.023898 0.0 
2.14598 1.71184 0.0 
4.47114 -0.725108 0.0 
2.94972 0.812693 0.0 
-2.51884 -5.20772 0.0 
0.933054 -0.00978829 0.0 
-3.39004 -0.0550254 0.0 
0.209319 0.0741243 0.0 
-0.14562 -1.1416 0.0 
0.16355 -0.0415655 0.0 
4.37129 -0.146188 0.0 
0.125896 0.0617342 0.0 
2.89507 -0.00321849 0.0 
0.117818 -0.0547525 0.0 
0.74577 -0.0190427 0.0 
1.20907 -2.59566 0.0 
7.05945 1.36908 0.0 
1.18414 0.837326 0.0 
-0.664239 0.00933663 0.0 
0.988285 -0.635056 0.0 
0.79931 -0.0154644 0.0 
-0.169857 -0.752454 0.0 
-0.535193 0.781979 0.0 
4.50646 0.336854 0.0 
0.675201 -0.447934 0.0 
4.33956 3.92927 0.0 
7.20401 -0.547152 0.0 
5.06202 0.761268 0.0 
-1.83764 -0.830466 0.0 
2.97447 -2.59497 0.0 
1.77447 -4.2029 0.0 
0.203756 0.0741702 0.0 
2.3905 -0.208726 0.0 
-2.38226 0.0491773 0.0 
1.57579 -4.90006 0.0 
0.892623 0.876713 0.0 
0.619187 0.0692661 0.0 
1.81524 2.22933 0.0 
3.20393 -0.375619 0.0 
0.560088 -0.0307549 0.0 
-4.00064 -1.06423 0.0 
4.1637 1.41296 0.0 
2.03909 0.577378 0.0 
3.97155 -0.451817 0.0 
-1.0713 0.305678 0.0 
1.24518 -0.853569 0.0 
5.30713 0.379083 0.0 
0.993214 0.00283989 0.0 
0.513972 -3.72515 0.0 
4.25372 1.90694 0.0 
0.87556 0.025233 0.0 
0.401296 0.0780688 0.0 
0.44761 -0.0359067 0.0 
-3.06259 -0.640688 0.0 
0.58449 -3.29242 0.0 
4.47137 0.702541 0.0 
-0.523713 -0.272593 0.0 
-0.477755 -0.422453 0.0 
0.570246 -0.533547 0.0 
0.538433 -0.0310055 0.0 
5.2741 -1.01059 0.0 
2.21102 -1.39328 0.0 
1.30783 -0.274121 0.0 
4.18709 -1.48886 0.0 
-1.19726 -3.28581 0.0 
-0.0359698 -1.75399 0.0 
0.617039 -0.0263973 0.0 
5.83653 0.150199 0.0 
5.57946 0.224905 0.0 
0.377841 -0.038928 0.0 
1.38254 1.36675 0.0 
2.58372 -1.06479 0.0 
4.70454 -3.6075 0.0 
0.551438 0.113173 0.0 
0.532912 -0.0384617 0.0 
-0.392031 -0.729994 0.0 
4.38556 1.53498 0.0 
-1.34387 -2.96962 0.0 
4.73748 -0.295427 0.0 
5.13252 -2.84762 0.0 
5.34987 1.08334 0.0 
0.326684 0.0802051 0.0 
1.0681 0.191919 0.0 
0.292684 0.0800176 0.0 
-0.288073 -0.693253 0.0 
0.850052 0.029488 0.0 
7.72674 -2.22661 0.0 
5.73402 0.253504 0.0 
3.27298 3.73283 0.0 
2.31769 -0.889324 0.0 
3.24694 -2.57408 0.0 
-0.795775 -5.8192 0.0 
0.667923 -0.0361302 0.0 
0.835769 0.0314682 0.0 
4.69839 -1.50939 0.0 
4.91709 3.01814 0.0 
0.151849 -0.0409087 0.0 
3.55148 0.264681 0.0 
0.842117 -0.794382 0.0 
2.65591 1.43349 0.0 
0.932811 0.0144733 0.0 
-0.764917 -0.926758 0.0 
3.60734 -0.915315 0.0 
-0.605852 0.649115 0.0 
5.76621 -0.263827 0.0 
3.08877 -0.924843 0.0 
0.899825 -0.00795866 0.0 
6.80384 1.26814 0.0 
3.19847 -0.826277 0.0 
0.0166341 -0.0962489 0.0 
3.983 -1.51439 0.0 
5.81155 1.05052 0.0 
0.403773 -0.0376754 0.0 
4.06583 -0.737319 0.0 
3.85222 3.16404 0.0 
7.27994 -0.917065 0.0 
7.01199 -1.44503 0.0 
5.44634 0.7472 0.0 
5.43495 -0.0201864 0.0 
1.51213 -0.834065 0.0 
1.97076 0.806002 0.0 
0.634487 0.0595385 0.0 
-0.572414 -4.29099 0.0 
1.8826 -0.733417 0.0 
0.759381 -0.180619 0.0 
0.40132 0.0778474 0.0 
0.23454 -0.0430222 0.0 
-0.802406 2.95957 0.0 
0.691963 0.0549995 0.0 
5.47277 -0.740356 0.0 
14.1487 4.94071 0.0 
0.0736498 -1.30758 0.0 
-3.24273 0.882011 0.0 
1.37104 -0.876055 0.0 
-0.483647 -0.194829 0.0 
2.83565 1.06937 0.0 
5.52957 -1.21731 0.0 
0.947149 -0.00912481 0.0 
-0.408161 -0.611461 0.0 
-0.824132 1.91234 0.0 
-0.28194 0.734853 0.0 
-2.58987 -0.112571 0.0 
5.39673 0.0810302 0.0 
0.347037 -1.34491 0.0 
1.28521 2.08402 0.0 
0.220369 -0.0424097 0.0 
-0.490215 0.575937 0.0 
1.64934 -1.3049 0.0 
0.153085 0.0664047 0.0 
-0.251695 -2.55503 0.0 
0.826156 -0.0139773 0.0 
3.35673 0.186652 0.0 
4.62807 -2.39408 0.0 
-1.05781 -1.39579 0.0 
-2.54531 4.21509 0.0 
1.60336 1.51116 0.0 
0.713093 0.0498095 0.0 
0.643534 0.0642145 0.0 
-3.64101 4.81173 0.0 
-1.26922 -3.94313 0.0 
-0.342655 -1.12768 0.0 
3.30326 0.952175 0.0 
5.64264 0.331249 0.0 
1.34559 -0.214642 0.0 
1.60527 0.321358 0.0 
0.328683 -0.0401423 0.0 
3.81728 0.37784 0.0 
4.37562 0.758715 0.0 
5.5831 -1.82905 0.0 
-1.49688 0.101849 0.0 
-1.70027 -0.343758 0.0 
0.937041 0.0136815 0.0 
5.60623 1.42522 0.0 
-1.23169 -0.42816 0.0 
1.69627 2.52442 0.0 
1.36245 -1.5082 0.0 
1.25107 -3.80948 0.0 
2.74679 0.528168 0.0 
5.36614 -1.19177 0.0 
0.605019 1.16677 0.0 
-4.58423 -1.62108 0.0 
-2.02651 2.34708 0.0 
3.99339 3.63024 0.0 
-1.36142 -0.0750085 0.0 
5.19766 -0.482867 0.0 
-3.85513 -1.43107 0.0 
0.966422 0.00919783 0.0 
0.247834 0.0870881 0.0 
-0.465649 -0.817954 0.0 
4.29025 4.26714 0.0 
1.18312 -0.431176 0.0 
9.21986 0.0258833 0.0 
5.39136 -0.625475 0.0 
5.56604 0.611257 0.0 
1.96388 -1.61685 0.0 
0.196106 -0.0423443 0.0 
2.93186 0.364486 0.0 
5.88518 0.822328 0.0 
0.824138 -0.0139123 0.0 
-0.47228 -0.526413 0.0 
0.477118 -0.0338206 0.0 
-4.64673 -2.62107 0.0 
4.10712 -0.887195 0.0 
0.710355 0.0501717 0.0 
1.64936 -0.864917 0.0 
-1.61346 -3.22424 0.0 
0.0092848 0.0284272 0.0 
7.26993 2.53793 0.0 
1.1048 2.83071 0.0 
10.1588 1.30502 0.0 
-0.263385 -0.26391 0.0 
13.7005 7 0.0 
0.52333 0.0703707 0.0 
4.58595 -1.29531 0.0 
5.62067 -0.188463 0.0 
0.799738 -0.0147854 0.0 
11.9625 -2.20661 0.0 
5.40435 0.619553 0.0 
3.28687 -1.45096 0.0 
0.458966 0.0872446 0.0 
5.51568 -0.596029 0.0 
-1.63011 3.37507 0.0 
0.293181 -0.0414659 0.0 
0.865321 -2.71027 0.0 
0.786038 -0.0158333 0.0 
0.0736186 0.0492692 0.0 
4.13993 -2.76136 0.0 
0.881421 -0.0921271 0.0 
0.266317 -3.38104 0.0 
4.88629 -0.852705 0.0 
0.437008 0.076424 0.0 
3.8816 4.12562 0.0 
7.92184 -0.0908268 0.0 
0.176354 -0.0480078 0.0 
-0.662142 0.143724 0.0 
6.26015 0.128606 0.0 
0.915518 -0.00670685 0.0 
3.62021 -1.04763 0.0 
1.34876 0.720027 0.0 
0.982357 -3.49725 0.0 
0.663709 0.0566737 0.0 
5.3066 -0.705713 0.0 
-0.944514 -3.61431 0.0 
1.79294 -0.661223 0.0 
-0.342215 2.27409 0.0 
5.88842 -0.367403 0.0 
0.211839 -0.0420107 0.0 
0.654413 -0.0369233 0.0 
3.68564 6.54289 0.0 
5.00064 1.8515 0.0 
0.69027 0.0546811 0.0 
1.12166 0.441142 0.0 
7.31715 -3.60167 0.0 
2.79958 1.64327 0.0 
0.433465 0.0764782 0.0 
0.584196 0.0652607 0.0 
0.0636322 -0.695974 0.0 
-1.81416 1.63551 0.0 
0.74075 0.0465749 0.0 
2.69342 -1.49048 0.0 
4.86008 -1.00044 0.0 
0.822907 -0.0142337 0.0 
-0.164664 0.307939 0.0 
4.48127 5.51069 0.0 
4.4895 -4.79993 0.0 
5.37438 1.55243 0.0 
0.123991 1.28664 0.0 
6.41782 -0.499678 0.0 
3.16721 -0.70129 0.0 
1.99155 -0.729552 0.0 
4.69954 4.16905 0.0 
-1.91695 -2.36563 0.0 
8.09216 1.16816 0.0 
0.242046 0.0802658 0.0 
2.34355 2.47663 0.0 
2.72841 -0.285972 0.0 
13.5916 6.05949 0.0 
1.64671 4.40597 0.0 
3.03209 1.84093 0.0 
-0.498111 0.662759 0.0 
0.765551 -2.10462 0.0 
5.25655 0.61914 0.0 
6.04759 -2.75505 0.0 
1.12471 -0.237361 0.0 
6.40695 -2.14103 0.0 
4.37139 0.883681 0.0 
0.240004 -0.042139 0.0 
-4.55867 -4.42627 0.0 
-1.09286 3.96435 0.0 
-1.07351 0.572111 0.0 
3.73338 -0.828021 0.0 
-0.766762 -0.403459 0.0 
0.402752 -1.68281 0.0 
0.925255 0.0164317 0.0 
0.88786 -0.943606 0.0 
0.505244 -0.025873 0.0 
-0.299243 0.0389379 0.0 
3.36416 0.723434 0.0 
0.636773 1.7916 0.0 
0.0435288 1.09333 0.0 
0.74756 2.65039 0.0 
5.12608 -1.02106 0.0 
3.05399 0.794214 0.0 
3.3685 -2.29577 0.0 
9.40833 4.18552 0.0 
0.726496 1.10014 0.0 
-1.43587 -0.265452 0.0 
1.53809 -0.965095 0.0 
3.65342 -1.2467 0.0 
3.58193 2.86195 0.0 
1.58453 1.05649 0.0 
0.69113 -0.0216886 0.0 
4.67304 -0.737386 0.0 
2.403 -2.53676 0.0 
-0.883615 -1.03632 0.0 
0.570985 0.067201 0.0 
4.5489 1.01634 0.0 
1.30188 0.95494 0.0 
4.78484 -2.98767 0.0 
0.647276 3.74647 0.0 
1.64058 -1.98991 0.0 
5.60464 1.66025 0.0 
-2.46641 -2.76999 0.0 
0.0236771 0.0292808 0.0 
1.83737 -2.85625 0.0 
0.712397 -0.0207427 0.0 
-0.929233 -3.15638 0.0 
5.62429 -0.0217768 0.0 
0.696715 -0.0236006 0.0 
4.31467 0.462465 0.0 
1.90518 -1.00498 0.0 
3.8123 -0.317197 0.0 
-1.40698 0.43063 0.0 
8.12686 0.163945 0.0 
0.0912505 -0.0517404 0.0 
0.360402 0.0788181 0.0 
0.766222 5.08386 0.0 
0.543306 0.227627 0.0 
0.768677 -0.887089 0.0 
13.8069 6.49329 0.0 
3.14545 -0.527242 0.0 
3.00213 0.685174 0.0 
-3.26851 -1.17579 0.0 
0.326091 -0.0407782 0.0 
-0.350969 -1.28117 0.0 
-1.34372 -4.38367 0.0 
-1.47047 0.274883 0.0 
8.69891 -0.824176 0.0 
0.572752 0.0666296 0.0 
3.02391 1.56815 0.0 
0.546825 -0.0304958 0.0 
7.53034 -2.92118 0.0 
0.862614 -3.9233 0.0 
7.46433 -0.686568 0.0 
0.435695 0.0763326 0.0 
-0.291216 -0.600905 0.0 
0.958024 -0.00418663 0.0 
0.996359 0.00209859 0.0 
-3.04054 -1.35802 0.0 
7.86523 -1.29492 0.0 
0.824153 0.0339519 0.0 
-2.0843 -1.39076 0.0 
2.0242 4.23744 0.0 
6.10554 -1.09258 0.0 
0.070474 0.0518922 0.0 
0.253412 0.0852338 0.0 
4.90662 -3.37133 0.0 
5.3389 -1.37998 0.0 
8.18441 -5.4394 0.0 
4.74018 -1.11041 0.0 
-1.45792 -1.69797 0.0 
-0.658439 1.28669 0.0 
-1.47154 1.02941 0.0 
0.548603 -1.30682 0.0 
-4.28372 4.01846 0.0 
0.597388 -0.031556 0.0 
0.976283 3.91053 0.0 
-1.97604 3.44687 0.0 
-0.823498 -1.2495 0.0 
-0.676338 -0.322971 0.0 
0.0194499 -2.00073 0.0 
6.06625 2.2173 0.0 
4.77636 1.32682 0.0 
3.5286 -1.40716 0.0 
2.2348 6.10147 0.0 
4.3501 1.14584 0.0 
-0.374853 0.997283 0.0 
0.331239 -0.0398749 0.0 
2.92416 0.944765 0.0 
-1.08711 -0.79613 0.0 
-2.10643 0.811211 0.0 
10.0853 -2.20029 0.0 
9.19723 -1.4685 0.0 
-3.63493 -2.23583 0.0 
9.13289 -4.40814 0.0 
0.13646 -0.0401233 0.0 
3.73879 -1.49966 0.0 
1.16246 1.31001 0.0 
1.76621 -0.985528 0.0 
0.279409 0.0783782 0.0 
4.49882 0.813878 0.0 
0.0773295 0.0501322 0.0 
-1.7711 -2.7915 0.0 
2.21785 -2.83793 0.0 
1.9729 0.35934 0.0 
6.07917 0.172121 0.0 
-1.06801 -1.19434 0.0 
-0.742511 -0.787541 0.0 
4.55801 -0.996424 0.0 
10.0032 -3.21238 0.0 
4.23955 3.27 0.0 
4.4588 0.213546 0.0 
-3.41169 -1.50587 0.0 
0.374392 0.944982 0.0 
[...]
<PointData>
  <DataArray type = "Float64" Name="VitesseP1" NumberOfComponents="3" format="ascii">
1 0 0.0 
1.00203 0 0.0 
0.998234 0 0.0 
1 0 0.0 
0.999716 -0.0012857 0.0 
1.00626 -0.00603985 0.0 
0.983533 -0.00245934 0.0 
1.00113 -0.000854499 0.0 
1.00681 -0.00100416 0.0 
0.624774 0.0384578 0.0 
1.00099 -0.00113935 0.0 
0.999658 -0.00348483 0.0 
0.0115239 0.000356906 0.0 
0 0 0.0 
0.945051 -0.00163128 0.0 
0.0876038 0.00546059 0.0 
1.00499 -0.00557511 0.0 
1.00172 -0.00206163 0.0 
1.00163 -0.00552953 0.0 
1.00009 -0.000177291 0.0 
0.14916 0.0100358 0.0 
0.999511 0.00133583 0.0 
0.0776974 0.0094732 0.0 
1.0008 -0.00587382 0.0 
1.25654e-08 -4.78513e-10 0.0 
0.99844 -0.00244848 0.0 
3.13011e-08 6.97047e-09 0.0 
0.844992 -0.00392975 0.0 
1.13929 -0.112885 0.0 
0.0182157 0.0017033 0.0 
1.00108 -0.000896083 0.0 
1.00121 -0.0017237 0.0 
1.01459 -0.0170788 0.0 
0.982485 0.00838896 0.0 
1.00261 0.00828781 0.0 
0.0132137 0.000624834 0.0 
0.999232 -0.0118885 0.0 
1.00318 0.0187392 0.0 
1.00137 -0.00289197 0.0 
1.01655 0.0122428 0.0 
1.00068 -0.00145177 0.0 
1.00507 -0.000291032 0.0 
1.00155 -0.00251365 0.0 
0.997254 0.000743488 0.0 
1.00123 -0.00105525 0.0 
1.00099 -0.000624404 0.0 
0.174174 0.0175538 0.0 
0.998288 -0.00408375 0.0 
0.998383 0.002689 0.0 
1.00091 -0.000467462 0.0 
1.02354 -0.0132901 0.0 
0.411404 -0.0405217 0.0 
1.00543 -0.00366356 0.0 
1.00069 -0.00308127 0.0 
0.0309013 0.00188374 0.0 
0.999822 0.000428244 0.0 
1.00147 -0.00314382 0.0 
1.00103 -0.0106516 0.0 
1.00148 -0.00251218 0.0 
0.993604 0.00926921 0.0 
1.00027 0.00337468 0.0 
1.0011 -0.0019376 0.0 
-3.04455e-09 -6.38445e-10 0.0 
1.00074 -0.000779378 0.0 
1.00154 -0.00281034 0.0 
-0.000847923 0.000159419 0.0 
3.21637e-08 -4.24534e-10 0.0 
0 0 0.0 
0.999184 0.00109268 0.0 
1.0008 -0.000896804 0.0 
1.00155 -0.00297227 0.0 
0.980851 -0.00440405 0.0 
0.986094 -0.00869176 0.0 
1.01719 0.00501649 0.0 
0 0 0.0 
1.00213 -0.00164105 0.0 
1.00003 -0.00100481 0.0 
0.987485 0.00639845 0.0 
1.0016 -0.00167457 0.0 
1.00006 -0.000738459 0.0 
1.00096 -0.00267141 0.0 
0 0 0.0 
0.983416 -0.00191358 0.0 
1.01357 -0.000620347 0.0 
3.43345e-08 1.57411e-09 0.0 
1.0099 -0.00805049 0.0 
0.99991 -0.00180954 0.0 
1.00177 -0.000775223 0.0 
1.1323 -0.0689731 0.0 
0.388477 0.020282 0.0 
0.994753 -0.00940285 0.0 
1.00148 -0.00290629 0.0 
0.999864 -0.000788295 0.0 
1.00184 -0.00215597 0.0 
1.002 -0.000979466 0.0 
1.00132 -0.00235044 0.0 
0.116062 0.000464671 0.0 
0.996813 -0.0611871 0.0 
0.14878 0.00371035 0.0 
0.995504 -0.0118178 0.0 
-1.06477e-09 2.03614e-11 0.0 
1.00275 -0.00134761 0.0 
1.00673 -0.00292628 0.0 
1.00155 -0.00168388 0.0 
0.999209 -0.00172415 0.0 
1.00132 -0.00110861 0.0 
1.00036 -0.000210142 0.0 
0.595634 0.034504 0.0 
0 0 0.0 
1.00188 -0.00155814 0.0 
1.00077 -0.00182279 0.0 
0 0 0.0 
1.00096 -0.00396759 0.0 
1.00552 0.00450634 0.0 
1.00298 -0.00553313 0.0 
0 0 0.0 
0.995338 -0.00379539 0.0 
1.00114 -0.00223099 0.0 
0.999135 0.0191839 0.0 
1.00529 -0.00441876 0.0 
1.00055 -0.00226209 0.0 
0 0 0.0 
1.00175 -0.00198941 0.0 
1.00063 -0.00239827 0.0 
0.994206 -0.169919 0.0 
1.00149 -0.00168754 0.0 
1.00076 -0.00239095 0.0 
0 0 0.0 
1.00145 -0.00223295 0.0 
1.00144 -0.00208573 0.0 
1.00428 -0.00119724 0.0 
1.0026 -0.00177075 0.0 
1.00126 -0.00241707 0.0 
0.906295 -0.00179628 0.0 
0.998444 0.00171895 0.0 
1.00315 -0.010606 0.0 
0 0 0.0 
1.00039 -0.00056077 0.0 
0.99761 -0.000654523 0.0 
1.01633 0.0358385 0.0 
0 0 0.0 
0.0478315 0.000486184 0.0 
1.00355 0.00262926 0.0 
0.0611434 -0.00757218 0.0 
1.00232 -0.00184619 0.0 
0.997895 0.000233069 0.0 
1.00217 -0.00426938 0.0 
0.999776 0.00198147 0.0 
0.999391 0.00245787 0.0 
0.976325 -0.0028629 0.0 
1.00223 -0.0056842 0.0 
1.00243 -0.00130067 0.0 
0.160808 0.0106592 0.0 
0.991833 -0.0103608 0.0 
1.00489 0.0058874 0.0 
1.00899 0.0248519 0.0 
0.998651 0.00216522 0.0 
0.960195 -0.00713276 0.0 
1.00306 -0.00264668 0.0 
1.00771 -0.00310869 0.0 
7.98368e-09 -1.79238e-10 0.0 
0.998753 0.0237353 0.0 
1.00006 8.42087e-05 0.0 
0 0 0.0 
1.00043 -0.0014307 0.0 
0.0252285 0.00192166 0.0 
1.0001 -0.00422904 0.0 
1.00185 -0.00119429 0.0 
0.997785 -0.00192753 0.0 
1.00071 0.00107289 0.0 
1.0077 -0.00699116 0.0 
0 0 0.0 
0.251586 -0.0272159 0.0 
1.00019 0.000481673 0.0 
1.00017 -0.000539851 0.0 
0.999084 -0.00582497 0.0 
1.00177 -0.0046043 0.0 
0.999571 8.70298e-05 0.0 
0.985297 0.00398739 0.0 
0.996716 -0.0178359 0.0 
0 0 0.0 
1.00116 -0.00364032 0.0 
1.00155 -0.0030646 0.0 
1.00216 -0.00117302 0.0 
0.995607 0.00505559 0.0 
0.996206 0.00236979 0.0 
0 0 0.0 
1.00093 -0.00213722 0.0 
0.993698 0.00143232 0.0 
1.00523 -0.00274179 0.0 
1.00105 4.01154e-06 0.0 
1.00092 -0.000716062 0.0 
1.00086 -0.00619317 0.0 
1.00223 -0.00175018 0.0 
1.02136 -0.00155129 0.0 
0.999981 0.000103078 0.0 
1.00143 0.00329131 0.0 
1.00104 -0.00170675 0.0 
0.99418 0.00421169 0.0 
1.00216 -0.00165084 0.0 
0.999791 0.000330048 0.0 
-0.0126185 0.00255945 0.0 
1.09451 0.0825285 0.0 
0.995508 -0.00752222 0.0 
1.00061 -0.00125947 0.0 
0.99481 0.0100167 0.0 
0.97942 -0.00277883 0.0 
1.00295 -0.00237766 0.0 
1.00232 -0.0021057 0.0 
1.0005 -0.000695903 0.0 
2.0048e-08 -9.77095e-10 0.0 
1.00052 -0.00542001 0.0 
1.00234 -0.00168113 0.0 
0.0169242 0.00110911 0.0 
0.989179 -0.00906024 0.0 
0 0 0.0 
0.999996 1.61932e-05 0.0 
1.00155 -0.00210034 0.0 
0 0 0.0 
0.998429 0.000759031 0.0 
0.999931 -0.00062217 0.0 
0.690543 0.50471 0.0 
0.999974 -0.0013591 0.0 
1.00544 -0.00108826 0.0 
0.999197 -0.00365944 0.0 
0.973158 -0.0215605 0.0 
0.998023 0 0.0 
0 0 0.0 
1.00181 -0.00168867 0.0 
0.993618 -0.000846184 0.0 
0 0 0.0 
1.00483 0.000551671 0.0 
1.00135 -0.00210511 0.0 
1.00095 -0.00173453 0.0 
0.858314 -0.0387585 0.0 
1.00179 -0.00117333 0.0 
1.00182 0.00201931 0.0 
1.79379e-08 8.22569e-10 0.0 
1.00103 -0.000994898 0.0 
0 0 0.0 
6.97932e-08 2.11061e-08 0.0 
1.00167 -0.00107611 0.0 
1.00072 0.0467218 0.0 
1.00069 -0.0009019 0.0 
1.00202 -0.00182976 0.0 
0 0 0.0 
1.00091 -0.00138163 0.0 
0.972086 -0.00101981 0.0 
0.696254 -0.0260698 0.0 
0.984418 0.0131785 0.0 
0.973521 -0.00151852 0.0 
0 0 0.0 
1.00113 -0.00210231 0.0 
1.00952 -0.0190022 0.0 
1.00089 -0.000802271 0.0 
0.00472354 -0.000570839 0.0 
1.00176 -0.00160005 0.0 
1.00022 -0.000709829 0.0 
0.996819 -0.000329791 0.0 
1.0063 0.00379806 0.0 
1.01196 -0.00571541 0.0 
0 0 0.0 
0.600011 0.0344169 0.0 
1.00036 -0.000177375 0.0 
1.00124 -0.00231172 0.0 
0.0423891 -0.00519537 0.0 
1.01192 -0.0354091 0.0 
1.00243 -0.000956867 0.0 
1.00308 -0.00480227 0.0 
0 0 0.0 
8.05899e-09 -5.28223e-10 0.0 
1.00579 -0.0134154 0.0 
1.0013 0.00476331 0.0 
0.00305852 -0.000410265 0.0 
1.00051 -0.00144829 0.0 
1.00201 -0.00179777 0.0 
0.0268085 0.00160155 0.0 
0.98987 0.0600639 0.0 
1.00018 -0.000620312 0.0 
1.00158 -0.000480892 0.0 
1.00126 -0.00218727 0.0 
1.01597 0.00758717 0.0 
1.01154 -0.00535612 0.0 
1.00043 -0.00258639 0.0 
0.997815 -0.00115411 0.0 
1.00041 -0.00125691 0.0 
0.999434 -0.000514978 0.0 
1.00017 -0.00277699 0.0 
0.553656 0.0405264 0.0 
1.00374 -0.00328554 0.0 
0.99936 -0.00358728 0.0 
0.997931 6.07882e-05 0.0 
1.00218 -0.000663197 0.0 
1.0028 -0.00413078 0.0 
1.00076 0.0216969 0.0 
1.00136 -0.00112672 0.0 
1.00111 -0.00262849 0.0 
1.00228 -0.00100485 0.0 
0.986272 0.0173259 0.0 
1.00252 -0.00114135 0.0 
1.00156 -0.00307121 0.0 
0 0 0.0 
1 -2.8363e-05 0.0 
1.00198 0.00135163 0.0 
0.996794 0.0106902 0.0 
1.00123 -0.00228051 0.0 
0.989053 -0.00153532 0.0 
1.00201 -0.00194375 0.0 
-2.70674e-08 4.29165e-09 0.0 
1.00416 0.00263551 0.0 
0 0 0.0 
0.952675 0.0176372 0.0 
1.00148 -0.00450483 0.0 
1.01176 -0.00029196 0.0 
1.0183 0.01228 0.0 
1.00633 -0.000277757 0.0 
1.00196 -0.00165687 0.0 
1.00157 -0.00524375 0.0 
1.00128 -0.00122426 0.0 
0.998552 -0.000958505 0.0 
1.02157 -0.00498267 0.0 
0.994906 0.00277019 0.0 
0.999146 0.00117153 0.0 
1.00117 -0.00191886 0.0 
1.00179 -0.00245341 0.0 
1.00788 -0.0113264 0.0 
0 0 0.0 
1.00183 -0.00196684 0.0 
1.00106 -0.000952724 0.0 
0.996267 -0.00294052 0.0 
0.02816 -0.00219487 0.0 
1.00149 -0.00287983 0.0 
1.01215 -0.0140734 0.0 
1.00186 -0.000951434 0.0 
1.00336 6.43885e-05 0.0 
1.0009 -0.000650822 0.0 
1.00116 -0.00192889 0.0 
0.999708 -0.000276827 0.0 
5.75996e-08 2.91063e-08 0.0 
1.00108 -0.000845276 0.0 
2.50452e-08 1.89635e-09 0.0 
1.00012 -0.000882237 0.0 
0.918668 5.17545e-05 0.0 
0.0848911 0.00558552 0.0 
1.0014 -0.0030909 0.0 
0.998995 -0.00044175 0.0 
1.00134 -0.00272393 0.0 
0.996545 0.00705266 0.0 
0.977537 -0.0028707 0.0 
1.1413 -0.155121 0.0 
1.22524e-08 5.54766e-10 0.0 
1.00172 -4.05313e-05 0.0 
1.10747 -0.0388851 0.0 
1.00599 0.00245596 0.0 
0.997992 3.86524e-05 0.0 
1.00038 -0.00286396 0.0 
1.00142 -0.00539135 0.0 
0.999462 0.000586257 0.0 
0.0125342 0.00061891 0.0 
0.999309 -0.00461692 0.0 
1.00021 -0.000435753 0.0 
0.996156 0.00599185 0.0 
1.00892 -0.00231236 0.0 
0.00856346 -0.000986362 0.0 
1.00257 -0.00457498 0.0 
0 0 0.0 
1.00259 -0.00111811 0.0 
1.00082 -0.000702921 0.0 
1.00671 -0.00294041 0.0 
0 0 0.0 
0.993535 -0.0137793 0.0 
0 0 0.0 
0 0 0.0 
0.99933 0.000483915 0.0 
1.00198 -0.00164939 0.0 
0.000575077 -0.000100995 0.0 
0.998482 7.8524e-05 0.0 
1.00213 -0.000970742 0.0 
1.00213 -0.00136741 0.0 
0.797467 0.251792 0.0 
0.959775 0.0669731 0.0 
1.00184 -0.000828784 0.0 
1.00221 -0.00150147 0.0 
1.00245 -0.000397025 0.0 
1.00189 -0.00171638 0.0 
0.998562 -0.00101203 0.0 
1.00548 0.0106592 0.0 
0.999915 0.00711604 0.0 
1.00345 -0.00150559 0.0 
1.00004 0.000393708 0.0 
0.187819 0.0108498 0.0 
1.00304 -0.000301793 0.0 
1.00142 0.00187804 0.0 
0.997388 -0.00292109 0.0 
0.986127 -0.00178136 0.0 
1.00084 -0.00206106 0.0 
1.00059 -0.00163575 0.0 
1.00129 -0.0026632 0.0 
1.00112 -0.00178895 0.0 
1.00097 -0.000248311 0.0 
1.00144 -0.003055 0.0 
1.00875 0.0163681 0.0 
0 0 0.0 
1.00194 -0.00553408 0.0 
0.994758 -0.00123694 0.0 
0.999195 0.00443163 0.0 
1.00378 -0.00122588 0.0 
1.00158 -0.00178383 0.0 
0.999823 8.24313e-05 0.0 
1.00286 -0.00056447 0.0 
0 0 0.0 
1.00131 -0.00172273 0.0 
1.01268 -0.00786597 0.0 
0.998907 6.54637e-05 0.0 
0 0 0.0 
1.00156 -0.00295254 0.0 
0 0 0.0 
0.9997 -0.000602648 0.0 
1.00111 -0.000874123 0.0 
0.998648 -0.0112002 0.0 
0.979838 -0.0070825 0.0 
0.996961 -0.00195254 0.0 
0.994017 -0.00411543 0.0 
1.00183 -0.00186477 0.0 
1.00338 -0.000647372 0.0 
1.00109 -0.00189803 0.0 
1.00091 -0.00290447 0.0 
0.999603 0.000363208 0.0 
1.0278 0.00562893 0.0 
0 0 0.0 
1.00323 0.00304254 0.0 
1.02222 0.0159578 0.0 
0.985832 -8.12312e-05 0.0 
0.998556 0.0133891 0.0 
1.00019 -0.00126854 0.0 
0.0113946 -0.00166175 0.0 
1.00164 -0.00174653 0.0 
1.00806 -0.00870266 0.0 
1.00099 0.00168099 0.0 
0.995682 -0.000489855 0.0 
4.31333e-08 8.27008e-10 0.0 
1.00409 0.000222805 0.0 
1.00148 -0.00273632 0.0 
0 0 0.0 
1.00017 -0.00181923 0.0 
1.00285 0.00631315 0.0 
2.61684e-07 -9.20711e-09 0.0 
1.00025 -0.00236941 0.0 
1.0023 -0.00286609 0.0 
1.00038 -0.00149291 0.0 
0.0183928 0.000493548 0.0 
1.00792 0.00152506 0.0 
1.00219 -0.000416713 0.0 
1.00259 0.00331411 0.0 
1.01457 0.00160855 0.0 
1.00291 0.000488623 0.0 
1.00028 -0.00106003 0.0 
1.00276 -0.000272795 0.0 
1.00024 0.00404077 0.0 
1.00128 -0.00213024 0.0 
0.108162 0.0203382 0.0 
1.00101 -0.00107501 0.0 
0.283308 0.0217387 0.0 
1.00164 -0.000862788 0.0 
1.00014 0.00118902 0.0 
1.00017 0.00279645 0.0 
1.00127 -0.000444829 0.0 
1.00274 -0.00078166 0.0 
1.00005 0.00192633 0.0 
0.997218 0.0046119 0.0 
1.00192 -0.000294542 0.0 
1.02505 -0.00777195 0.0 
1.00013 -0.000797072 0.0 
1.0083 0.00064188 0.0 
0 0 0.0 
1.00118 -0.00229931 0.0 
1.00143 -0.00429178 0.0 
0.991118 0.00155334 0.0 
1.00553 0.0220315 0.0 
1.00028 -0.00597907 0.0 
0.998986 -0.000313092 0.0 
1.00211 -0.000833835 0.0 
0.947914 -0.000344162 0.0 
0.963287 0.00180842 0.0 
8.78888e-09 1.79489e-10 0.0 
1.00283 0.00218346 0.0 
1.00146 -0.00274235 0.0 
1.00309 -0.00167468 0.0 
1.00421 -0.000880306 0.0 
0.995912 0.00376974 0.0 
0 0 0.0 
0.996808 -0.000483446 0.0 
0.999896 0.00049906 0.0 
1.00197 -0.00285175 0.0 
0 0 0.0 
0.999978 6.89653e-05 0.0 
1.0007 -0.000315962 0.0 
1.00204 -0.000907941 0.0 
0.999069 -0.000906048 0.0 
1.0012 -0.000734738 0.0 
1.00643 -0.00472032 0.0 
0.930949 0.00258489 0.0 
0.999972 -0.00287606 0.0 
1.0028 -0.000899554 0.0 
1.00191 -0.00330207 0.0 
0.997998 0.000102347 0.0 
1.00106 -0.000851663 0.0 
1.0015 -0.00158278 0.0 
1.00001 0.00446939 0.0 
1.0024 -0.00411939 0.0 
0.997835 -6.49476e-05 0.0 
1.00166 -0.000977886 0.0 
1.00159 -0.00199351 0.0 
1.00009 0.000345723 0.0 
0.0902773 -0.00559323 0.0 
1.03507 -0.0446598 0.0 
1.00203 -0.00041931 0.0 
0.999917 0.00168718 0.0 
0.143577 -0.00817507 0.0 
1.00138 -0.00259337 0.0 
0.566502 -0.0549996 0.0 
1.00273 -0.0032357 0.0 
1.00004 -0.000147762 0.0 
0.997794 0.00331463 0.0 
1.0007 -0.00109861 0.0 
1.00252 -0.00414333 0.0 
0.00958899 0.000378029 0.0 
1.00061 -0.0002809 0.0 
1.00039 -0.00175453 0.0 
1.00234 -0.00106282 0.0 
0.998904 -0.00630379 0.0 
1.00204 -0.00695117 0.0 
1.00128 -0.00230071 0.0 
1.00712 -0.00207467 0.0 
1.00146 -0.00254439 0.0 
0.999559 -0.0153972 0.0 
1.00247 0.00175652 0.0 
0.996475 0.000348135 0.0 
1.00073 0.00131968 0.0 
6.45665e-09 5.02987e-10 0.0 
0.998057 6.32877e-05 0.0 
8.1943e-08 3.83102e-08 0.0 
1.00023 -0.00123683 0.0 
0.992026 0.00498434 0.0 
1.00232 -0.00119673 0.0 
1.00252 -0.00123598 0.0 
1.00086 -0.00115773 0.0 
1.00221 -0.0105323 0.0 
0 0 0.0 
0.997596 -2.32536e-05 0.0 
0.994334 -0.00075692 0.0 
0.996784 0.00171254 0.0 
0.0904044 0.00134675 0.0 
0.0222286 0.00109656 0.0 
0 0 0.0 
1.00349 0.000909635 0.0 
0.999547 -0.00109866 0.0 
0.999882 -0.000493961 0.0 
1.00126 -0.00114241 0.0 
1.00362 -0.0021599 0.0 
1.00058 -0.00207889 0.0 
0.997853 3.13744e-05 0.0 
1.00056 -0.000889493 0.0 
0.999803 -0.000976377 0.0 
0.0517926 -0.00716926 0.0 
0.997523 0.000805424 0.0 
1.00695 -0.000969652 0.0 
1.01339 0.00482447 0.0 
1.00284 -0.00110819 0.0 
0.998975 -5.54825e-05 0.0 
1.00137 -0.00280286 0.0 
1.00217 -0.00356244 0.0 
1.00145 -0.0026204 0.0 
1.00223 0.00127359 0.0 
0.999592 -0.00151772 0.0 
1.00061 -0.00592984 0.0 
1.00322 -0.00175005 0.0 
1.00203 -0.00106912 0.0 
1.00149 -0.000978601 0.0 
1.00072 -0.000958246 0.0 
0.985832 -0.00563682 0.0 
1.00011 -0.00763581 0.0 
1.00468 -0.000932141 0.0 
1.0005 -0.00775539 0.0 
1.00423 -0.00718038 0.0 
1.00235 0.00406311 0.0 
1.00506 0.0156148 0.0 
1.01777 0.00032231 0.0 
1.00187 -0.00462846 0.0 
0.486496 0.18675 0.0 
1.00441 0.00390415 0.0 
1.00042 -0.000796148 0.0 
0.999133 -0.00755141 0.0 
1.0019 -0.000546525 0.0 
1.00001 0.000495951 0.0 
1.00189 -0.00244635 0.0 
1.00148 -0.000510894 0.0 
1.00173 -0.00164193 0.0 
1.00222 0.00260541 0.0 
1.00256 -0.00125607 0.0 
2.60555e-08 -3.29071e-09 0.0 
0.999228 -0.00251211 0.0 
0.998874 -0.00122647 0.0 
1.00346 -0.00705544 0.0 
0.999773 -0.000401548 0.0 
1.00058 0.000149285 0.0 
1.00305 -0.00117934 0.0 
1.00446 -0.00162217 0.0 
1.00195 -0.00321965 0.0 
1.00176 -0.00419127 0.0 
0.998336 -0.00151361 0.0 
0.999933 0.00112487 0.0 
1.00155 -0.00475294 0.0 
1.00487 0.000918015 0.0 
1.00063 -0.00173699 0.0 
1.0009 -0.0020507 0.0 
0.997441 -0.00362905 0.0 
1.00043 0.00602121 0.0 
1.00253 -0.00126222 0.0 
0 0 0.0 
1.003 -0.00470462 0.0 
0.999663 -0.000782519 0.0 
1.00153 -0.00308059 0.0 
4.96364e-09 -8.77375e-11 0.0 
1.00043 -0.000363292 0.0 
1.00056 -0.00168742 0.0 
0.998382 -0.00301765 0.0 
1.00095 -0.00216938 0.0 
0.999049 -0.00716712 0.0 
1.00127 -0.000742351 0.0 
1.00018 0.000585634 0.0 
0 0 0.0 
1.00247 -0.00147749 0.0 
1.0003 -0.00233414 0.0 
1.00098 -0.00149462 0.0 
1.00625 -0.00266603 0.0 
1.00178 -0.00419039 0.0 
0.999922 0.000236736 0.0 
1.00091 -0.000306955 0.0 
1.00142 -0.00331085 0.0 
1.00121 -0.00359986 0.0 
1.00749 -0.033217 0.0 
0.996577 -0.00307318 0.0 
1.00099 -0.00232189 0.0 
1.00261 -7.13213e-05 0.0 
1.0012 -0.000110132 0.0 
0.926325 -0.00542133 0.0 
0 0 0.0 
1.00151 0.000740563 0.0 
0.999212 0.00187666 0.0 
0.989089 0.00282237 0.0 
1.00296 0.000356072 0.0 
1.0015 -0.00257024 0.0 
1.00183 -0.00146796 0.0 
0.999685 0.000141353 0.0 
1.00234 -0.000180736 0.0 
0.999293 0.0038838 0.0 
1.00179 -0.00159514 0.0 
0.999729 -0.000458673 0.0 
1.00444 -0.00381923 0.0 
0.999511 -0.000302383 0.0 
1.00158 -0.000399955 0.0 
0.0140703 0.000826044 0.0 
1.01447 -0.00370488 0.0 
1.00876 -0.00461457 0.0 
1.01309 -0.00838087 0.0 
1.00171 -0.000179522 0.0 
1.00415 -0.00814109 0.0 
1.00177 -0.00175643 0.0 
0 0 0.0 
1.00102 -0.00120845 0.0 
0.732741 -0.13588 0.0 
1.04157 -0.0462779 0.0 
0.997449 0.00576453 0.0 
1.00002 -3.93076e-05 0.0 
0.997748 -0.00511961 0.0 
0.990216 0.000415245 0.0 
1.00085 0.00975743 0.0 
1.0026 -0.000514717 0.0 
0.326867 0.0333018 0.0 
1.00149 0.0040277 0.0 
1.00162 -0.00118277 0.0 
1.00173 -0.00157889 0.0 
1.00147 -0.00274485 0.0 
0 0 0.0 
0.99927 -0.000314094 0.0 
1.00109 -0.000699119 0.0 
0.999339 0.00591104 0.0 
0.999732 -0.00231875 0.0 
1.00134 -0.000701105 0.0 
1.00008 -0.00145273 0.0 
1.00252 -0.00347547 0.0 
0.995517 -0.0130097 0.0 
1.00007 0.00468989 0.0 
0.99871 0.00311253 0.0 
0.998537 -0.00143298 0.0 
1.00099 -0.000536305 0.0 
1.00088 -0.00103414 0.0 
1.00154 0.00106616 0.0 
1.0503 -0.223248 0.0 
0.997233 -0.00663347 0.0 
0.99851 0.00571706 0.0 
1.00001 0.000338815 0.0 
1.00367 -0.00222193 0.0 
1.00192 0.0028803 0.0 
1.00188 -0.000398758 0.0 
0.999916 -0.000759703 0.0 
1.00796 -0.000556393 0.0 
1.00423 -0.0267852 0.0 
1.002 -0.00153807 0.0 
1.00136 -0.000944341 0.0 
0.997516 0.00136894 0.0 
0.991057 0.00130616 0.0 
1.00398 0.00205404 0.0 
1.00072 -0.000355587 0.0 
0.976905 -0.00248542 0.0 
1.00139 -0.000911805 0.0 
0.999045 -0.00276281 0.0 
1.00169 -0.000688122 0.0 
1.00003 -0.00117081 0.0 
1.00305 -0.000104615 0.0 
1.00089 -0.00305972 0.0 
1.00054 -0.000971419 0.0 
1.00067 0.000536998 0.0 
1.00084 -0.000438774 0.0 
1.00044 -0.000995818 0.0 
0.999872 0.00163201 0.0 
1.00463 0.00449015 0.0 
1.00363 0.000396306 0.0 
1.00138 -0.000491579 0.0 
1.00105 -0.000767298 0.0 
0.998404 0.00172308 0.0 
1.0035 0.00156275 0.0 
1.00423 -0.000545109 0.0 
0.999988 -0.000148458 0.0 
1.00106 -0.000607393 0.0 
0.995891 -0.00172441 0.0 
0.999996 -2.47294e-05 0.0 
1.00011 -0.00120934 0.0 
1.00019 -0.000335452 0.0 
1.00003 -4.78776e-05 0.0 
1.00082 -0.00119563 0.0 
0.997951 5.53179e-06 0.0 
0 0 0.0 
1.00106 -0.00214706 0.0 
0.999307 0.00241598 0.0 
0.999587 -0.000410045 0.0 
0.998903 -0.00101203 0.0 
1.00224 -0.00147395 0.0 
1.0001 -0.00010973 0.0 
1.00209 -0.00194362 0.0 
1.00195 -0.00080868 0.0 
0 0 0.0 
1.00842 0.00261064 0.0 
1.05033 -0.0724328 0.0 
1.00166 -0.00125934 0.0 
1.00108 -0.000824571 0.0 
0.998034 -0.000418093 0.0 
1.00001 0.000146981 0.0 
1.00011 -0.0108485 0.0 
1.00197 -0.00355792 0.0 
1.00062 -0.000384221 0.0 
0 0 0.0 
1.00141 -0.0010276 0.0 
0.998949 -0.00179975 0.0 
1.00279 0.00142217 0.0 
0.992528 3.76009e-05 0.0 
1.00699 -0.000403064 0.0 
1.0011 -0.000442063 0.0 
1.00011 -0.00310826 0.0 
0.997583 0.0549489 0.0 
0.998304 -0.00506217 0.0 
1.00091 -0.00173379 0.0 
1.00163 -0.00303209 0.0 
1.00171 0.00508205 0.0 
1.00218 -0.00140176 0.0 
1.00424 0.00204798 0.0 
1.00363 -0.00161987 0.0 
0.99927 -0.000224413 0.0 
1.00184 -0.00164172 0.0 
1.00265 -0.000214494 0.0 
1.00083 -0.00235464 0.0 
1.00104 -0.000346229 0.0 
1.00052 -7.40596e-05 0.0 
0.999728 -0.00073877 0.0 
1.00069 0.000771243 0.0 
1.00183 0.0327141 0.0 
1.00142 0.000476827 0.0 
-2.37444e-09 2.61521e-11 0.0 
1.00048 0.00178437 0.0 
1.00077 -0.00190556 0.0 
1.00368 0.00567462 0.0 
1.00632 -0.00296502 0.0 
1.00002 -0.00047385 0.0 
1.00026 -0.00126337 0.0 
1.00025 -0.00304534 0.0 
0.99908 -0.00217042 0.0 
1.00362 -0.000792595 0.0 
0.999581 -0.000514916 0.0 
0.994526 0.0032787 0.0 
0.999646 -0.0035556 0.0 
0.999468 0.000270024 0.0 
1.00153 -0.00304234 0.0 
0.967703 -0.000417791 0.0 
1.00138 -0.00184398 0.0 
1.0005 -0.00176595 0.0 
1.00161 -0.000955502 0.0 
1.00093 -0.000998295 0.0 
0.999169 -0.0004575 0.0 
1.00155 -0.00428885 0.0 
0.999982 0.00136711 0.0 
0.997563 -0.000284191 0.0 
1.00018 -0.00362947 0.0 
0.180647 -0.0164258 0.0 
1.0025 -0.00105847 0.0 
1.00137 -0.000145863 0.0 
0.997316 0.00142023 0.0 
0.999263 -0.00188388 0.0 
0.99888 -0.000124688 0.0 
1.004 0.000660726 0.0 
1.00007 -0.000366966 0.0 
1.00056 -0.00182732 0.0 
0.997903 -2.05046e-05 0.0 