<VTKFile type="UnstructuredGrid" version="0.1" byte_order="LittleEndian">
  <UnstructuredGrid>
    <Piece NumberOfPoints="23679" NumberOfCells="47236">
      <Points>
        <DataArray type = "Float64" NumberOfComponents="3" format="ascii">
-5 -7 0.0 
15.5 -7 0.0 
15.5 7 0.0 
-5 7 0.0 
7.63511 2.91639 0.0 
1.87049 1.67084 0.0 
-0.605974 -0.287769 0.0 
2.37337 -3.10656 0.0 
0.929906 2.48659 0.0 
0.824948 -0.0289232 0.0 
0.579762 -2.6174 0.0 
2.75639 -0.320238 0.0 
0.600589 -0.0279367 0.0 
0.809974 0.0358912 0.0 
4.52511 -0.0925724 0.0 
0.692729 -0.023898 0.0 
2.14598 1.71184 0.0 
4.47114 -0.725108 0.0 
2.94972 0.812693 0.0 
-2.51884 -5.20772 0.0 
0.933054 -0.00978829 0.0 
-3.39004 -0.0550254 0.0 
0.209319 0.0741243 0.0 
-0.14562 -1.1416 0.0 
0.16355 -0.0415655 0.0 
4.37129 -0.146188 0.0 
0.125896 0.0617342 0.0 
2.89507 -0.00321849 0.0 
0.117818 -0.0547525 0.0 
0.74577 -0.0190427 0.0 
1.20907 -2.59566 0.0 
7.05945 1.36908 0.0 
1.18414 0.837326 0.0 
-0.664239 0.00933663 0.0 
0.988285 -0.635056 0.0 
0.79931 -0.0154644 0.0 
-0.169857 -0.752454 0.0 
-0.535193 0.781979 0.0 
4.50646 0.336854 0.0 
0.675201 -0.447934 0.0 
4.33956 3.92927 0.0 
7.20401 -0.547152 0.0 
5.06202 0.761268 0.0 
-1.83764 -0.830466 0.0 
2.97447 -2.59497 0.0 
1.77447 -4.2029 0.0 
0.203756 0.0741702 0.0 
2.3905 -0.208726 0.0 
-2.38226 0.0491773 0.0 
1.57579 -4.90006 0.0 
0.892623 0.876713 0.0 
0.619187 0.0692661 0.0 
1.81524 2.22933 0.0 
3.20393 -0.375619 0.0 
0.560088 -0.0307549 0.0 
-4.00064 -1.06423 0.0 
4.1637 1.41296 0.0 
2.03909 0.577378 0.0 
3.97155 -0.451817 0.0 
-1.0713 0.305678 0.0 
1.24518 -0.853569 0.0 
5.30713 0.379083 0.0 
0.993214 0.00283989 0.0 
0.513972 -3.72515 0.0 
4.25372 1.90694 0.0 
0.87556 0.025233 0.0 
0.401296 0.0780688 0.0 
0.44761 -0.0359067 0.0 
-3.06259 -0.640688 0.0 
0.58449 -3.29242 0.0 
4.47137 0.702541 0.0 
-0.523713 -0.272593 0.0 
-0.477755 -0.422453 0.0 
0.570246 -0.533547 0.0 
0.538433 -0.0310055 0.0 
5.2741 -1.01059 0.0 
2.21102 -1.39328 0.0 
1.30783 -0.274121 0.0 
4.18709 -1.48886 0.0 
-1.19726 -3.28581 0.0 
-0.0359698 -1.75399 0.0 
0.617039 -0.0263973 0.0 
5.83653 0.150199 0.0 
5.57946 0.224905 0.0 
0.377841 -0.038928 0.0 
1.38254 1.36675 0.0 
2.58372 -1.06479 0.0 
4.70454 -3.6075 0.0 
0.551438 0.113173 0.0 
0.532912 -0.0384617 0.0 
-0.392031 -0.729994 0.0 
4.38556 1.53498 0.0 
-1.34387 -2.96962 0.0 
4.73748 -0.295427 0.0 
5.13252 -2.84762 0.0 
5.34987 1.08334 0.0 
0.326684 0.0802051 0.0 
1.0681 0.191919 0.0 
0.292684 0.0800176 0.0 
-0.288073 -0.693253 0.0 
0.850052 0.029488 0.0 
7.72674 -2.22661 0.0 
5.73402 0.253504 0.0 
3.27298 3.73283 0.0 
2.31769 -0.889324 0.0 
3.24694 -2.57408 0.0 
-0.795775 -5.8192 0.0 
0.667923 -0.0361302 0.0 
0.835769 0.0314682 0.0 
4.69839 -1.50939 0.0 
4.91709 3.01814 0.0 
0.151849 -0.0409087 0.0 
3.55148 0.264681 0.0 
0.842117 -0.794382 0.0 
2.65591 1.43349 0.0 
0.932811 0.0144733 0.0 
-0.764917 -0.926758 0.0 
3.60734 -0.915315 0.0 
-0.605852 0.649115 0.0 
5.76621 -0.263827 0.0 
3.08877 -0.924843 0.0 
0.899825 -0.00795866 0.0 
6.80384 1.26814 0.0 
3.19847 -0.826277 0.0 
0.0166341 -0.0962489 0.0 
3.983 -1.51439 0.0 
5.81155 1.05052 0.0 
0.403773 -0.0376754 0.0 
4.06583 -0.737319 0.0 
3.85222 3.16404 0.0 
7.27994 -0.917065 0.0 
7.01199 -1.44503 0.0 
5.44634 0.7472 0.0 
5.43495 -0.0201864 0.0 
1.51213 -0.834065 0.0 
1.97076 0.806002 0.0 
0.634487 0.0595385 0.0 
-0.572414 -4.29099 0.0 
1.8826 -0.733417 0.0 
0.759381 -0.180619 0.0 
0.40132 0.0778474 0.0 
0.23454 -0.0430222 0.0 
-0.802406 2.95957 0.0 
0.691963 0.0549995 0.0 
5.47277 -0.740356 0.0 
14.1487 4.94071 0.0 
0.0736498 -1.30758 0.0 
-3.24273 0.882011 0.0 
1.37104 -0.876055 0.0 
-0.483647 -0.194829 0.0 
2.83565 1.06937 0.0 
5.52957 -1.21731 0.0 
0.947149 -0.00912481 0.0 
-0.408161 -0.611461 0.0 
-0.824132 1.91234 0.0 
-0.28194 0.734853 0.0 
-2.58987 -0.112571 0.0 
5.39673 0.0810302 0.0 
0.347037 -1.34491 0.0 
1.28521 2.08402 0.0 
0.220369 -0.0424097 0.0 
-0.490215 0.575937 0.0 
1.64934 -1.3049 0.0 
0.153085 0.0664047 0.0 
-0.251695 -2.55503 0.0 
0.826156 -0.0139773 0.0 
3.35673 0.186652 0.0 
4.62807 -2.39408 0.0 
-1.05781 -1.39579 0.0 
-2.54531 4.21509 0.0 
1.60336 1.51116 0.0 
0.713093 0.0498095 0.0 
0.643534 0.0642145 0.0 
-3.64101 4.81173 0.0 
-1.26922 -3.94313 0.0 
-0.342655 -1.12768 0.0 
3.30326 0.952175 0.0 
5.64264 0.331249 0.0 
1.34559 -0.214642 0.0 
1.60527 0.321358 0.0 
0.328683 -0.0401423 0.0 
3.81728 0.37784 0.0 
4.37562 0.758715 0.0 
5.5831 -1.82905 0.0 
-1.49688 0.101849 0.0 
-1.70027 -0.343758 0.0 
0.937041 0.0136815 0.0 
5.60623 1.42522 0.0 
-1.23169 -0.42816 0.0 
1.69627 2.52442 0.0 
1.36245 -1.5082 0.0 
1.25107 -3.80948 0.0 
2.74679 0.528168 0.0 
5.36614 -1.19177 0.0 
0.605019 1.16677 0.0 
-4.58423 -1.62108 0.0 
-2.02651 2.34708 0.0 
3.99339 3.63024 0.0 
-1.36142 -0.0750085 0.0 
5.19766 -0.482867 0.0 
-3.85513 -1.43107 0.0 
0.966422 0.00919783 0.0 
0.247834 0.0870881 0.0 
-0.465649 -0.817954 0.0 
4.29025 4.26714 0.0 
1.18312 -0.431176 0.0 
9.21986 0.0258833 0.0 
5.39136 -0.625475 0.0 
5.56604 0.611257 0.0 
1.96388 -1.61685 0.0 
0.196106 -0.0423443 0.0 
2.93186 0.364486 0.0 
5.88518 0.822328 0.0 
0.824138 -0.0139123 0.0 
-0.47228 -0.526413 0.0 
0.477118 -0.0338206 0.0 
-4.64673 -2.62107 0.0 
4.10712 -0.887195 0.0 
0.710355 0.0501717 0.0 
1.64936 -0.864917 0.0 
-1.61346 -3.22424 0.0 
0.0092848 0.0284272 0.0 
7.26993 2.53793 0.0 
1.1048 2.83071 0.0 
10.1588 1.30502 0.0 
-0.263385 -0.26391 0.0 
13.7005 7 0.0 
0.52333 0.0703707 0.0 
4.58595 -1.29531 0.0 
5.62067 -0.188463 0.0 
0.799738 -0.0147854 0.0 
11.9625 -2.20661 0.0 
5.40435 0.619553 0.0 
3.28687 -1.45096 0.0 
0.458966 0.0872446 0.0 
5.51568 -0.596029 0.0 
-1.63011 3.37507 0.0 
0.293181 -0.0414659 0.0 
0.865321 -2.71027 0.0 
0.786038 -0.0158333 0.0 
0.0736186 0.0492692 0.0 
4.13993 -2.76136 0.0 
0.881421 -0.0921271 0.0 
0.266317 -3.38104 0.0 
4.88629 -0.852705 0.0 
0.437008 0.076424 0.0 
3.8816 4.12562 0.0 
7.92184 -0.0908268 0.0 
0.176354 -0.0480078 0.0 
-0.662142 0.143724 0.0 
6.26015 0.128606 0.0 
0.915518 -0.00670685 0.0 
3.62021 -1.04763 0.0 
1.34876 0.720027 0.0 
0.982357 -3.49725 0.0 
0.663709 0.0566737 0.0 
5.3066 -0.705713 0.0 
-0.944514 -3.61431 0.0 
1.79294 -0.661223 0.0 
-0.342215 2.27409 0.0 
5.88842 -0.367403 0.0 
0.211839 -0.0420107 0.0 
0.654413 -0.0369233 0.0 
3.68564 6.54289 0.0 
5.00064 1.8515 0.0 
0.69027 0.0546811 0.0 
1.12166 0.441142 0.0 
7.31715 -3.60167 0.0 
2.79958 1.64327 0.0 
0.433465 0.0764782 0.0 
0.584196 0.0652607 0.0 
0.0636322 -0.695974 0.0 
-1.81416 1.63551 0.0 
0.74075 0.0465749 0.0 
2.69342 -1.49048 0.0 
4.86008 -1.00044 0.0 
0.822907 -0.0142337 0.0 
-0.164664 0.307939 0.0 
4.48127 5.51069 0.0 
4.4895 -4.79993 0.0 
5.37438 1.55243 0.0 
0.123991 1.28664 0.0 
6.41782 -0.499678 0.0 
3.16721 -0.70129 0.0 
1.99155 -0.729552 0.0 
4.69954 4.16905 0.0 
-1.91695 -2.36563 0.0 
8.09216 1.16816 0.0 
0.242046 0.0802658 0.0 
2.34355 2.47663 0.0 
2.72841 -0.285972 0.0 
13.5916 6.05949 0.0 
1.64671 4.40597 0.0 
3.03209 1.84093 0.0 
-0.498111 0.662759 0.0 
0.765551 -2.10462 0.0 
5.25655 0.61914 0.0 
6.04759 -2.75505 0.0 
1.12471 -0.237361 0.0 
6.40695 -2.14103 0.0 
4.37139 0.883681 0.0 
0.240004 -0.042139 0.0 
-4.55867 -4.42627 0.0 
-1.09286 3.96435 0.0 
-1.07351 0.572111 0.0 
3.73338 -0.828021 0.0 
-0.766762 -0.403459 0.0 
0.402752 -1.68281 0.0 
0.925255 0.0164317 0.0 
0.88786 -0.943606 0.0 
0.505244 -0.025873 0.0 
-0.299243 0.0389379 0.0 
3.36416 0.723434 0.0 
0.636773 1.7916 0.0 
0.0435288 1.09333 0.0 
0.74756 2.65039 0.0 
5.12608 -1.02106 0.0 
3.05399 0.794214 0.0 
3.3685 -2.29577 0.0 
9.40833 4.18552 0.0 
0.726496 1.10014 0.0 
-1.43587 -0.265452 0.0 
1.53809 -0.965095 0.0 
3.65342 -1.2467 0.0 
3.58193 2.86195 0.0 
1.58453 1.05649 0.0 
0.69113 -0.0216886 0.0 
4.67304 -0.737386 0.0 
2.403 -2.53676 0.0 
-0.883615 -1.03632 0.0 
0.570985 0.067201 0.0 
4.5489 1.01634 0.0 
1.30188 0.95494 0.0 
4.78484 -2.98767 0.0 
0.647276 3.74647 0.0 
1.64058 -1.98991 0.0 
5.60464 1.66025 0.0 
-2.46641 -2.76999 0.0 
0.0236771 0.0292808 0.0 
1.83737 -2.85625 0.0 
0.712397 -0.0207427 0.0 
-0.929233 -3.15638 0.0 
5.62429 -0.0217768 0.0 
0.696715 -0.0236006 0.0 
4.31467 0.462465 0.0 
1.90518 -1.00498 0.0 
3.8123 -0.317197 0.0 
-1.40698 0.43063 0.0 
8.12686 0.163945 0.0 
0.0912505 -0.0517404 0.0 
0.360402 0.0788181 0.0 
0.766222 5.08386 0.0 
0.543306 0.227627 0.0 
0.768677 -0.887089 0.0 
13.8069 6.49329 0.0 
3.14545 -0.527242 0.0 
3.00213 0.685174 0.0 
-3.26851 -1.17579 0.0 
0.326091 -0.0407782 0.0 
-0.350969 -1.28117 0.0 
-1.34372 -4.38367 0.0 
-1.47047 0.274883 0.0 
8.69891 -0.824176 0.0 
0.572752 0.0666296 0.0 
3.02391 1.56815 0.0 
0.546825 -0.0304958 0.0 
7.53034 -2.92118 0.0 
0.862614 -3.9233 0.0 
7.46433 -0.686568 0.0 
0.435695 0.0763326 0.0 
-0.291216 -0.600905 0.0 
0.958024 -0.00418663 0.0 
0.996359 0.00209859 0.0 
-3.04054 -1.35802 0.0 
7.86523 -1.29492 0.0 
0.824153 0.0339519 0.0 
-2.0843 -1.39076 0.0 
2.0242 4.23744 0.0 
6.10554 -1.09258 0.0 
0.070474 0.0518922 0.0 
0.253412 0.0852338 0.0 
4.90662 -3.37133 0.0 
5.3389 -1.37998 0.0 
8.18441 -5.4394 0.0 
4.74018 -1.11041 0.0 
-1.45792 -1.69797 0.0 
-0.658439 1.28669 0.0 
-1.47154 1.02941 0.0 
0.548603 -1.30682 0.0 
-4.28372 4.01846 0.0 
0.597388 -0.031556 0.0 
0.976283 3.91053 0.0 
-1.97604 3.44687 0.0 
-0.823498 -1.2495 0.0 
-0.676338 -0.322971 0.0 
0.0194499 -2.00073 0.0 
6.06625 2.2173 0.0 
4.77636 1.32682 0.0 
3.5286 -1.40716 0.0 
2.2348 6.10147 0.0 
4.3501 1.14584 0.0 
-0.374853 0.997283 0.0 
0.331239 -0.0398749 0.0 
2.92416 0.944765 0.0 
-1.08711 -0.79613 0.0 
-2.10643 0.811211 0.0 
10.0853 -2.20029 0.0 
9.19723 -1.4685 0.0 
-3.63493 -2.23583 0.0 
9.13289 -4.40814 0.0 
0.13646 -0.0401233 0.0 
3.73879 -1.49966 0.0 
1.16246 1.31001 0.0 
1.76621 -0.985528 0.0 
0.279409 0.0783782 0.0 
4.49882 0.813878 0.0 
0.0773295 0.0501322 0.0 
-1.7711 -2.7915 0.0 
2.21785 -2.83793 0.0 
1.9729 0.35934 0.0 
6.07917 0.172121 0.0 
-1.06801 -1.19434 0.0 
-0.742511 -0.787541 0.0 
4.55801 -0.996424 0.0 
10.0032 -3.21238 0.0 
4.23955 3.27 0.0 
4.4588 0.213546 0.0 
-3.41169 -1.50587 0.0 
0.374392 0.944982 0.0 
[...]
<PointData>
  <DataArray type = "Float64" Name="VitesseP1" NumberOfComponents="3" format="ascii">
1 0 0.0 
1.00316 0 0.0 
0.997869 0 0.0 
1 0 0.0 
1.00002 -0.000989089 0.0 
1.00628 -0.00602231 0.0 
0.983527 -0.00243694 0.0 
1.00112 -0.000854457 0.0 
1.00682 -0.000996338 0.0 
0.624816 0.0384403 0.0 
1.00099 -0.00113743 0.0 
0.999611 -0.00344604 0.0 
0.0115414 0.000357391 0.0 
0 0 0.0 
0.945349 -0.00154716 0.0 
0.0880936 0.00548944 0.0 
1.00501 -0.00555431 0.0 
1.00162 -0.00200401 0.0 
1.00167 -0.00548449 0.0 
1.00009 -0.000177142 0.0 
0.149206 0.0100382 0.0 
0.999511 0.00133804 0.0 
0.0776935 0.00947273 0.0 
1.00079 -0.00586308 0.0 
1.25678e-08 -4.78246e-10 0.0 
0.998504 -0.00236046 0.0 
3.12995e-08 6.97051e-09 0.0 
0.844919 -0.00389154 0.0 
1.13922 -0.112872 0.0 
0.0182646 0.00170723 0.0 
1.00107 -0.000894398 0.0 
1.00155 -0.00127317 0.0 
1.01461 -0.017064 0.0 
0.982484 0.00841232 0.0 
1.00258 0.00829653 0.0 
0.0132453 0.000626257 0.0 
0.999214 -0.0118723 0.0 
1.00319 0.0187556 0.0 
1.00143 -0.00278059 0.0 
1.01652 0.0122502 0.0 
1.00071 -0.00142484 0.0 
1.00484 0.000138688 0.0 
1.00164 -0.00239125 0.0 
0.997252 0.000750325 0.0 
1.00121 -0.001052 0.0 
1.00099 -0.000626585 0.0 
0.174166 0.017553 0.0 
0.998246 -0.00405095 0.0 
0.998383 0.00269437 0.0 
1.00091 -0.000469376 0.0 
1.02356 -0.0132768 0.0 
0.411694 -0.0405264 0.0 
1.00544 -0.00364948 0.0 
1.00063 -0.00303371 0.0 
0.0309772 0.00188803 0.0 
0.999822 0.000429226 0.0 
1.00152 -0.0030741 0.0 
1.00105 -0.0106252 0.0 
1.00139 -0.00244885 0.0 
0.993606 0.00928418 0.0 
1.00024 0.00338472 0.0 
1.00119 -0.00177551 0.0 
-3.04492e-09 -6.38249e-10 0.0 
1.00074 -0.000779635 0.0 
1.00159 -0.00274944 0.0 
-0.000848891 0.000159593 0.0 
3.21679e-08 -4.24493e-10 0.0 
0 0 0.0 
0.999184 0.00109547 0.0 
1.0008 -0.00089651 0.0 
1.00161 -0.00287341 0.0 
0.980843 -0.00437949 0.0 
0.986083 -0.00866946 0.0 
1.01716 0.0050256 0.0 
0 0 0.0 
1.00198 -0.00158898 0.0 
1 -0.000991776 0.0 
0.987459 0.00641273 0.0 
1.00153 -0.00165342 0.0 
1.00006 -0.000737098 0.0 
1.00095 -0.00266535 0.0 
0 0 0.0 
0.982928 -0.00174742 0.0 
1.0137 -0.000425848 0.0 
3.4266e-08 1.57115e-09 0.0 
1.00992 -0.00803612 0.0 
0.999873 -0.00178804 0.0 
1.00176 -0.000795216 0.0 
1.1323 -0.0689715 0.0 
0.388874 0.0202603 0.0 
0.994739 -0.00938625 0.0 
1.00154 -0.00283341 0.0 
0.999861 -0.000786418 0.0 
1.00172 -0.00206071 0.0 
1.00196 -0.000994816 0.0 
1.00141 -0.00223373 0.0 
0.116056 0.000464618 0.0 
0.996841 -0.0611724 0.0 
0.148773 0.00371021 0.0 
0.995488 -0.0118003 0.0 
-1.06745e-09 2.08263e-11 0.0 
1.00276 -0.000900963 0.0 
1.00683 -0.0026908 0.0 
1.00156 -0.00166459 0.0 
0.999174 -0.0017034 0.0 
1.00129 -0.00110584 0.0 
1.00036 -0.000210287 0.0 
0.595433 0.0345168 0.0 
0 0 0.0 
1.00179 -0.00154203 0.0 
1.00082 -0.00177654 0.0 
0 0 0.0 
1.00101 -0.0038967 0.0 
1.00549 0.00451484 0.0 
1.003 -0.00550153 0.0 
0 0 0.0 
0.995329 -0.00378314 0.0 
1.00107 -0.00219238 0.0 
0.999144 0.0192016 0.0 
1.00525 -0.00431942 0.0 
1.0005 -0.00223104 0.0 
0 0 0.0 
1.00207 -0.00165717 0.0 
1.00058 -0.00236312 0.0 
0.994145 -0.169869 0.0 
1.00142 -0.00166619 0.0 
1.00087 -0.00224464 0.0 
0 0 0.0 
1.00137 -0.00218101 0.0 
1.00147 -0.00205456 0.0 
1.00396 -0.000606521 0.0 
1.0024 -0.00142375 0.0 
1.00136 -0.00227427 0.0 
0.90611 -0.00166174 0.0 
0.998418 0.00173126 0.0 
1.00317 -0.0105821 0.0 
0 0 0.0 
1.00039 -0.000560673 0.0 
0.997579 -0.00063726 0.0 
1.0163 0.0358385 0.0 
0 0 0.0 
0.0478411 0.000486296 0.0 
1.00355 0.002633 0.0 
0.0611836 -0.00757649 0.0 
1.00212 -0.00174908 0.0 
0.998225 -0.000232895 0.0 
1.00216 -0.00426059 0.0 
0.999776 0.00198383 0.0 
0.999365 0.00246869 0.0 
0.976317 -0.00283573 0.0 
1.00226 -0.00564496 0.0 
1.00227 -0.00124995 0.0 
0.160853 0.0106616 0.0 
0.991819 -0.010342 0.0 
1.00489 0.00589427 0.0 
1.009 0.02487 0.0 
0.998651 0.00216967 0.0 
0.959499 -0.00698571 0.0 
1.00304 -0.0026389 0.0 
1.00772 -0.0030979 0.0 
7.98545e-09 -1.78995e-10 0.0 
0.998764 0.0237553 0.0 
1.00004 9.39394e-05 0.0 
0 0 0.0 
1.00043 -0.00142787 0.0 
0.0252656 0.00192426 0.0 
1.00013 -0.00416386 0.0 
1.0018 -0.00120487 0.0 
0.997779 -0.00191995 0.0 
1.00071 0.00107376 0.0 
1.00772 -0.00697555 0.0 
0 0 0.0 
0.251793 -0.0272295 0.0 
1.00019 0.000481959 0.0 
1.00017 -0.000539249 0.0 
0.999071 -0.00581374 0.0 
1.00181 -0.0045513 0.0 
0.999725 0.000310961 0.0 
0.985271 0.00400323 0.0 
0.996742 -0.0178157 0.0 
0 0 0.0 
1.0012 -0.00356106 0.0 
1.00161 -0.00297119 0.0 
1.00206 -0.00114175 0.0 
0.995608 0.0050664 0.0 
0.996205 0.00237856 0.0 
0 0 0.0 
1.00103 -0.00203656 0.0 
0.993694 0.00144463 0.0 
1.00524 -0.00273002 0.0 
1.00103 1.10837e-05 0.0 
1.00092 -0.000717239 0.0 
1.0009 -0.00615024 0.0 
1.00209 -0.00170695 0.0 
1.02138 -0.00153932 0.0 
0.999981 0.00010337 0.0 
1.00144 0.00329459 0.0 
1.00106 -0.00167872 0.0 
0.99418 0.00422369 0.0 
1.00198 -0.00156221 0.0 
0.99979 0.000331079 0.0 
-0.0126216 0.00256004 0.0 
1.09454 0.0825311 0.0 
0.995496 -0.00750721 0.0 
1.00063 -0.00123729 0.0 
0.994784 0.0100275 0.0 
0.974211 -0.000190375 0.0 
1.00273 -0.00227475 0.0 
1.00245 -0.00194195 0.0 
1.00047 -0.000686775 0.0 
2.0052e-08 -9.77054e-10 0.0 
1.00056 -0.00537011 0.0 
1.00249 -0.00150304 0.0 
0.0169504 0.00111069 0.0 
0.989166 -0.00904012 0.0 
0 0 0.0 
0.999996 1.63545e-05 0.0 
1.00147 -0.00205498 0.0 
0 0 0.0 
0.998401 0.000772374 0.0 
0.999929 -0.000620719 0.0 
0.690644 0.504816 0.0 
1.00026 -0.00112556 0.0 
1.00545 -0.00108087 0.0 
1.00295 -0.000184975 0.0 
0.973142 -0.0215286 0.0 
0.998052 0 0.0 
0 0 0.0 
1.00172 -0.0016624 0.0 
0.993739 -0.000782322 0.0 
0 0 0.0 
1.00352 -0.000671702 0.0 
1.00146 -0.00195718 0.0 
1.00091 -0.00171324 0.0 
0.858357 -0.0387977 0.0 
1.00159 -0.0010908 0.0 
1.00182 0.00202147 0.0 
1.7926e-08 8.22115e-10 0.0 
1.00102 -0.000993453 0.0 
0 0 0.0 
6.97911e-08 2.11059e-08 0.0 
1.00164 -0.00108364 0.0 
1.00069 0.0467154 0.0 
1.00068 -0.000901484 0.0 
1.00189 -0.00177718 0.0 
0 0 0.0 
1.00092 -0.00136026 0.0 
0.971113 -0.000390889 0.0 
0.69629 -0.0260704 0.0 
0.98442 0.0132015 0.0 
0.972987 -0.00120862 0.0 
0 0 0.0 
1.00107 -0.00206751 0.0 
1.00954 -0.018986 0.0 
1.00088 -0.000802764 0.0 
0.00473015 -0.000571629 0.0 
1.00158 -0.00153509 0.0 
1.00022 -0.000708912 0.0 
0.996788 -0.0003128 0.0 
1.00631 0.00380422 0.0 
1.01178 -0.0055584 0.0 
0 0 0.0 
0.59992 0.034437 0.0 
1.00037 -0.0001753 0.0 
1.00131 -0.00223371 0.0 
0.0424202 -0.00519878 0.0 
1.01194 -0.0353941 0.0 
1.00234 -0.000621707 0.0 
1.00311 -0.00476988 0.0 
0 0 0.0 
8.09244e-09 -5.317e-10 0.0 
1.00576 -0.0133999 0.0 
1.0013 0.00476852 0.0 
0.00305944 -0.00041039 0.0 
1.00048 -0.00143244 0.0 
1.00189 -0.00175543 0.0 
0.0268498 0.00160375 0.0 
0.98989 0.060096 0.0 
1.00019 -0.000608766 0.0 
1.00159 -0.000496912 0.0 
1.00136 -0.00209163 0.0 
1.01599 0.00759872 0.0 
1.01122 -0.00512402 0.0 
1.00038 -0.0025485 0.0 
0.997783 -0.00113544 0.0 
1.00044 -0.00123164 0.0 
0.999432 -0.000512371 0.0 
1.00098 -0.00151759 0.0 
0.553645 0.0405256 0.0 
1.00376 -0.003267 0.0 
0.999314 -0.00354845 0.0 
0.998117 -7.10594e-05 0.0 
1.00219 -0.000657911 0.0 
1.00283 -0.00409605 0.0 
1.00077 0.0217153 0.0 
1.00134 -0.00112312 0.0 
1.00121 -0.00248755 0.0 
1.00224 -0.000917365 0.0 
0.986248 0.0173358 0.0 
1.00246 -0.000951556 0.0 
1.00162 -0.00298157 0.0 
0 0 0.0 
1 -2.83008e-05 0.0 
1.00198 0.0013535 0.0 
0.996798 0.0107038 0.0 
1.00116 -0.00223718 0.0 
0.989047 -0.00151714 0.0 
1.002 -0.00193794 0.0 
-2.70791e-08 4.29365e-09 0.0 
1.00414 0.0026439 0.0 
0 0 0.0 
0.952677 0.0176768 0.0 
1.00152 -0.00444678 0.0 
1.01177 -0.000282509 0.0 
1.01832 0.0122931 0.0 
1.00634 -0.000270965 0.0 
1.00183 -0.00161481 0.0 
1.00161 -0.00519569 0.0 
1.00125 -0.00121858 0.0 
0.999052 -0.000515948 0.0 
1.02159 -0.00497036 0.0 
0.994904 0.00278117 0.0 
0.99912 0.00118308 0.0 
1.00111 -0.00189009 0.0 
1.00181 -0.00242176 0.0 
1.0079 -0.0113089 0.0 
0 0 0.0 
1.00171 -0.00190775 0.0 
1.00104 -0.000949622 0.0 
0.99626 -0.00292983 0.0 
0.0282764 -0.00220346 0.0 
1.00156 -0.00278722 0.0 
1.01217 -0.0140581 0.0 
1.00183 -0.000970646 0.0 
1.00336 6.8397e-05 0.0 
1.00088 -0.000645862 0.0 
1.00126 -0.00183053 0.0 
0.999706 -0.000275285 0.0 
5.75987e-08 2.91069e-08 0.0 
1.00107 -0.000844356 0.0 
2.51609e-08 1.90396e-09 0.0 
1.00012 -0.000880654 0.0 
0.918542 0.000267729 0.0 
0.0853566 0.00561438 0.0 
1.00146 -0.00299203 0.0 
0.998967 -0.000427213 0.0 
1.00126 -0.00265906 0.0 
0.996547 0.00706373 0.0 
0.975224 -0.00153402 0.0 
1.14123 -0.155103 0.0 
1.22528e-08 5.54991e-10 0.0 
1.00172 -3.83871e-05 0.0 
1.10749 -0.038878 0.0 
1.00597 0.00246447 0.0 
0.998069 -4.0892e-05 0.0 
1.00032 -0.00282188 0.0 
1.00146 -0.0053434 0.0 
0.999462 0.000588298 0.0 
0.0125017 0.000616997 0.0 
0.999297 -0.00460724 0.0 
1.00021 -0.000435432 0.0 
0.996157 0.00600269 0.0 
1.00935 -0.00151562 0.0 
0.00860025 -0.000990593 0.0 
1.0026 -0.0045372 0.0 
0 0 0.0 
1.00248 -0.000673718 0.0 
1.00081 -0.000703875 0.0 
1.00652 -0.00245594 0.0 
0 0 0.0 
0.993519 -0.0137597 0.0 
0 0 0.0 
0 0 0.0 
0.999329 0.000486188 0.0 
1.00207 -0.00111498 0.0 
0.000574022 -0.000100778 0.0 
0.99848 8.30467e-05 0.0 
1.00213 -0.000963385 0.0 
1.00194 -0.00121437 0.0 
0.797495 0.251801 0.0 
0.959783 0.066974 0.0 
1.00182 -0.000849703 0.0 
1.00208 -0.00147471 0.0 
1.00227 -0.000238741 0.0 
1.00179 -0.00168167 0.0 
0.998558 -0.0010068 0.0 
1.00548 0.01067 0.0 
0.999918 0.00712455 0.0 
1.00343 -0.00149811 0.0 
1.00004 0.000393921 0.0 
0.188015 0.0108565 0.0 
1.00305 -0.000297442 0.0 
1.00142 0.00187985 0.0 
0.997381 -0.00291189 0.0 
0.98612 -0.0017608 0.0 
1.00083 -0.00205635 0.0 
1.00071 -0.00158049 0.0 
1.00136 -0.00257361 0.0 
1.00107 -0.00176517 0.0 
1.00098 -0.000246013 0.0 
1.0015 -0.00297336 0.0 
1.00876 0.0163823 0.0 
0 0 0.0 
1.00197 -0.00549124 0.0 
0.994752 -0.00122564 0.0 
0.999196 0.00443763 0.0 
1.00266 -0.000416993 0.0 
1.00044 -0.000907484 0.0 
0.999823 8.33586e-05 0.0 
1.00257 -0.000375447 0.0 
0 0 0.0 
1.00126 -0.00170052 0.0 
1.0127 -0.00785281 0.0 
0.998879 7.88709e-05 0.0 
0 0 0.0 
1.00162 -0.00285592 0.0 
0 0 0.0 
0.999698 -0.00060065 0.0 
1.0011 -0.00087297 0.0 
0.998675 -0.0111738 0.0 
0.979358 -0.00685867 0.0 
0.996955 -0.00194374 0.0 
0.994009 -0.00410158 0.0 
1.00173 -0.00182268 0.0 
1.00273 -0.000396127 0.0 
1.00112 -0.00186171 0.0 
1.00096 -0.00279214 0.0 
0.999603 0.000364821 0.0 
1.02782 0.00564203 0.0 
0 0 0.0 
1.00388 -0.000792266 0.0 
1.02224 0.0159723 0.0 
0.985239 0.000893026 0.0 
0.998562 0.0134036 0.0 
1.00016 -0.00125403 0.0 
0.0113861 -0.00166033 0.0 
1.00156 -0.0017202 0.0 
1.00808 -0.00868608 0.0 
1.00099 0.00168245 0.0 
0.995678 -0.000479983 0.0 
4.31309e-08 8.2722e-10 0.0 
1.003 -0.000243397 0.0 
1.00155 -0.00263666 0.0 
0 0 0.0 
1.00013 -0.00179755 0.0 
1.00285 0.00632004 0.0 
2.61733e-07 -9.20873e-09 0.0 
1.00021 -0.00233863 0.0 
1.00233 -0.00283809 0.0 
1.00048 -0.00147344 0.0 
0.0183379 0.000492198 0.0 
1.00793 0.00153213 0.0 
1.0021 -0.000261044 0.0 
1.00259 0.00331782 0.0 
1.01458 0.00161882 0.0 
1.00302 -0.000295936 0.0 
1.00027 -0.00105827 0.0 
1.00247 -0.000209852 0.0 
1.00024 0.00404544 0.0 
1.00121 -0.00209178 0.0 
0.108158 0.0203375 0.0 
1.00099 -0.00106907 0.0 
0.283298 0.0217378 0.0 
1.00162 -0.000858036 0.0 
1.00014 0.00118994 0.0 
1.00017 0.00279945 0.0 
1.00127 -0.000450391 0.0 
1.00258 -0.000657989 0.0 
1.00005 0.00192827 0.0 
0.997192 0.00462352 0.0 
1.00192 -0.000237959 0.0 
1.02507 -0.00775918 0.0 
1.00011 -0.000785729 0.0 
1.00728 -0.00016016 0.0 
0 0 0.0 
1.00126 -0.00221676 0.0 
1.00147 -0.0042295 0.0 
0.99989 0.00010744 0.0 
1.00555 0.0220489 0.0 
1.00032 -0.00593386 0.0 
0.998973 -0.000307294 0.0 
1.00208 -0.000764671 0.0 
0.947815 -0.000170478 0.0 
0.963252 0.00197672 0.0 
8.79005e-09 1.79735e-10 0.0 
1.00284 0.00218647 0.0 
1.00153 -0.0026198 0.0 
1.0031 -0.0016641 0.0 
1.00422 -0.000873687 0.0 
0.995911 0.00377933 0.0 
0 0 0.0 
0.996804 -0.000475363 0.0 
0.999896 0.000499849 0.0 
1.002 -0.00281852 0.0 
0 0 0.0 
0.999978 6.92889e-05 0.0 
1.00059 -0.000146797 0.0 
1.00201 -0.000910964 0.0 
0.999039 -0.000889975 0.0 
1.00119 -0.00073753 0.0 
1.00644 -0.00470518 0.0 
0.930858 0.00280128 0.0 
0.999963 -0.00286937 0.0 
1.00251 -0.000431819 0.0 
1.00194 -0.00325301 0.0 
0.998068 -7.49881e-05 0.0 
1.00105 -0.000850827 0.0 
1.00144 -0.00156664 0.0 
1.00001 0.00447485 0.0 
1.00232 -0.00405152 0.0 
0.998326 -0.000135627 0.0 
1.00167 -0.000969069 0.0 
1.00151 -0.00195318 0.0 
1.00009 0.000345905 0.0 
0.0904006 -0.00560916 0.0 
1.0351 -0.0446456 0.0 
1.002 -0.000307871 0.0 
0.999893 0.00169728 0.0 
0.143877 -0.00822086 0.0 
1.00143 -0.00252691 0.0 
0.566653 -0.0549865 0.0 
1.00275 -0.00320956 0.0 
1.00004 -0.000147595 0.0 
0.997794 0.00332128 0.0 
1.00068 -0.00108929 0.0 
1.00255 -0.00410364 0.0 
0.00960462 0.000378564 0.0 
1.00062 -0.000277346 0.0 
1.00039 -0.00175069 0.0 
1.00231 -0.000882482 0.0 
0.999944 -0.00217065 0.0 
1.00207 -0.00691652 0.0 
1.00137 -0.00220472 0.0 
1.00833 -0.00126566 0.0 
1.00154 -0.00240934 0.0 
0.999585 -0.0153757 0.0 
1.00247 0.00175897 0.0 
0.996472 0.000356402 0.0 
1.00071 0.00132852 0.0 
6.48064e-09 5.04459e-10 0.0 
0.99802 -4.73924e-05 0.0 
8.19418e-08 3.831e-08 0.0 
1.00027 -0.00121824 0.0 
0.992025 0.00499893 0.0 
1.00224 -0.00111011 0.0 
1.00235 -0.00117424 0.0 
1.00084 -0.00114896 0.0 
1.00224 -0.0105069 0.0 
0 0 0.0 
0.998487 -0.000195631 0.0 
0.994303 -0.000738188 0.0 
0.998218 -0.00067109 0.0 
0.0904215 0.00134697 0.0 
0.0222838 0.0010992 0.0 
0 0 0.0 
1.00342 -0.000591221 0.0 
0.999801 -0.000871397 0.0 
0.999881 -0.000492621 0.0 
1.00127 -0.00112973 0.0 
1.00363 -0.0021472 0.0 
1.00053 -0.00205082 0.0 
0.99785 3.70577e-05 0.0 
1.00056 -0.000888821 0.0 
0.999854 -0.0010185 0.0 
0.0517909 -0.00716864 0.0 
0.998923 -0.000557687 0.0 
1.00727 -0.000707662 0.0 
1.0134 0.00483455 0.0 
1.00266 -0.000571568 0.0 
0.998974 -5.20842e-05 0.0 
1.00143 -0.00272126 0.0 
1.00221 -0.00352003 0.0 
1.00148 -0.0025747 0.0 
1.0038 -0.000816856 0.0 
1.00019 -0.000828053 0.0 
1.00064 -0.00588456 0.0 
1.00301 -0.00164814 0.0 
1.00197 -0.0010776 0.0 
1.00147 -0.00098307 0.0 
1.00074 -0.000945392 0.0 
0.985823 -0.00561507 0.0 
1.00014 -0.00760014 0.0 
1.00466 -0.000924016 0.0 
1.00053 -0.00772044 0.0 
1.00426 -0.00715662 0.0 
1.00236 0.00406747 0.0 
1.00507 0.0156289 0.0 
1.01779 0.000333601 0.0 
1.0019 -0.00457959 0.0 
0.486507 0.186755 0.0 
1.00442 0.00390932 0.0 
1.00042 -0.000795491 0.0 
0.999163 -0.00751538 0.0 
1.0019 -0.000521474 0.0 
1.00001 0.000496307 0.0 
1.00198 -0.00229714 0.0 
1.00148 -0.000523782 0.0 
1.00166 -0.00110172 0.0 
1.00222 0.00260826 0.0 
1.00245 -0.00079363 0.0 
2.60879e-08 -3.29491e-09 0.0 
0.999357 -0.00228662 0.0 
0.999461 -0.000637008 0.0 
1.00349 -0.00702814 0.0 
0.999772 -0.000400048 0.0 
1.00058 0.000149402 0.0 
1.00306 -0.00117154 0.0 
1.00421 -0.000574448 0.0 
1.00199 -0.00317722 0.0 
1.0018 -0.00413789 0.0 
0.998331 -0.00150744 0.0 
0.999934 0.00112603 0.0 
1.00159 -0.0046992 0.0 
1.00484 0.000926197 0.0 
1.00069 -0.0016969 0.0 
1.00095 -0.00199687 0.0 
0.999506 -0.00127832 0.0 
1.00044 0.0060282 0.0 
1.00242 -0.000944304 0.0 
0 0 0.0 
0.995365 -0.000273986 0.0 
0.999702 -0.000838638 0.0 
1.00158 -0.00299526 0.0 
4.97908e-09 -8.85647e-11 0.0 
1.00043 -0.000363569 0.0 
1.00065 -0.00165157 0.0 
0.99905 -0.00154231 0.0 
1.00089 -0.00213583 0.0 
0.999035 -0.00715455 0.0 
1.00126 -0.000745855 0.0 
1.00018 0.000585983 0.0 
0 0 0.0 
1.00235 -0.00142301 0.0 
1.00029 -0.00232878 0.0 
1.00094 -0.00147948 0.0 
1.00595 -0.00231295 0.0 
1.00359 -0.00173306 0.0 
0.999922 0.000237337 0.0 
1.00091 -0.000308538 0.0 
1.00141 -0.00330343 0.0 
1.00128 -0.00352031 0.0 
1.00751 -0.0332016 0.0 
0.999376 -0.000722986 0.0 
1.00093 -0.00228321 0.0 
1.00261 -6.79559e-05 0.0 
1.0012 -0.000111403 0.0 
0.926077 -0.00537478 0.0 
0 0 0.0 
1.00151 0.000741793 0.0 
0.999212 0.00187991 0.0 
0.989086 0.00283962 0.0 
1.00296 0.000359252 0.0 
1.00158 -0.00244817 0.0 
1.00176 -0.00146046 0.0 
0.999685 0.000142763 0.0 
1.0022 -0.000114684 0.0 
0.999294 0.00388893 0.0 
1.00171 -0.00157637 0.0 
0.999754 -0.000462761 0.0 
1.00446 -0.0038017 0.0 
0.99953 -0.000321124 0.0 
1.00159 -0.000414619 0.0 
0.0140949 0.000827488 0.0 
1.01448 -0.00369343 0.0 
1.00878 -0.00460209 0.0 
1.01306 -0.00836801 0.0 
1.00173 -0.00017177 0.0 
1.00418 -0.0081168 0.0 
1.00159 -0.00158022 0.0 
0 0 0.0 
1.00099 -0.0012002 0.0 
0.732709 -0.135773 0.0 
1.0416 -0.0462639 0.0 
0.997451 0.00577364 0.0 
1.00002 -3.92735e-05 0.0 
0.997737 -0.00510824 0.0 
0.990211 0.00043183 0.0 
1.00085 0.00976815 0.0 
1.00261 -0.000509959 0.0 
0.326856 0.0333007 0.0 
1.00149 0.00403189 0.0 
1.00159 -0.00118531 0.0 
1.00166 -0.00156266 0.0 
1.00153 -0.00267475 0.0 
0 0 0.0 
0.999268 -0.000311235 0.0 
1.00109 -0.000701174 0.0 
0.999341 0.00591849 0.0 
0.999724 -0.0023131 0.0 
1.00133 -0.000706605 0.0 
1.00008 -0.00144951 0.0 
1.00254 -0.00344407 0.0 
0.995544 -0.0129861 0.0 
0.987245 -0.000900073 0.0 
0.99871 0.00311793 0.0 
0.999587 -0.000548507 0.0 
1.00099 -0.000538469 0.0 
1.00087 -0.0010331 0.0 
1.00154 0.00106758 0.0 
1.05024 -0.223231 0.0 
0.997221 -0.00662045 0.0 
0.998512 0.00572532 0.0 
1.00001 0.000339037 0.0 
1.00333 -0.00180093 0.0 
1.00192 0.00288327 0.0 
1.00186 -0.000392861 0.0 
0.999942 -0.00075365 0.0 
1.00701 -0.000631876 0.0 
1.00426 -0.0267688 0.0 
1.00184 -0.00144659 0.0 
1.00137 -0.000934947 0.0 
0.999475 -0.00121647 0.0 
0.991029 0.0013231 0.0 
1.00279 -0.000832869 0.0 
1.00072 -0.000356822 0.0 
0.973694 -0.000596442 0.0 
1.00137 -0.000914669 0.0 
0.99912 -0.00258729 0.0 
1.00168 -0.000707302 0.0 
1.00011 -0.00120894 0.0 
1.0027 -0.000214166 0.0 
1.00082 -0.00300303 0.0 
1.00051 -0.000961168 0.0 
1.00067 0.00053745 0.0 
1.00082 -0.000432056 0.0 
1.00043 -0.000994628 0.0 
0.999872 0.0016338 0.0 
1.00458 -0.000570085 0.0 
1.00252 -4.8005e-05 0.0 
1.00139 -0.000487172 0.0 
1.00104 -0.000763649 0.0 
0.998403 0.00172787 0.0 
1.00323 -0.00100894 0.0 
1.00087 -9.99883e-06 0.0 
0.999988 -0.000148103 0.0 
1.00106 -0.000609907 0.0 
1.00044 -0.00080216 0.0 
0.999996 -2.45802e-05 0.0 
1.00016 -0.0012012 0.0 
1.00018 -0.000335254 0.0 
1.00003 -4.78406e-05 0.0 
1.00081 -0.00119379 0.0 
0.998125 -2.66115e-05 0.0 
0 0 0.0 
1.00111 -0.00209696 0.0 
0.999307 0.0024196 0.0 
0.999586 -0.000407974 0.0 
0.999241 -0.000641513 0.0 
1.00222 -0.00146788 0.0 
1.0001 -0.000109672 0.0 
1.00211 -0.00192566 0.0 
1.00193 -0.000818199 0.0 
0 0 0.0 
1.00868 -0.00108525 0.0 
1.05036 -0.0724173 0.0 
1.00167 -0.00124731 0.0 
1.00107 -0.000824688 0.0 
0.998543 -0.000250423 0.0 
1.00001 0.000147055 0.0 
1.00013 -0.0108218 0.0 
1.00201 -0.00350642 0.0 
1.00062 -0.000385105 0.0 
0 0 0.0 
1.00139 -0.00102846 0.0 
0.999876 -0.0008046 0.0 
1.00313 -0.000530253 0.0 
1.0025 -0.000310319 0.0 
1.00719 -0.000146958 0.0 
1.0011 -0.000445373 0.0 
1.00021 -0.00294226 0.0 
0.997603 0.054978 0.0 
1.00217 -0.000716961 0.0 
1.00109 -0.00160178 0.0 
1.00168 -0.0029667 0.0 
1.00172 0.00508748 0.0 
1.00207 -0.00137866 0.0 
1.00424 0.002052 0.0 
1.00509 0.000446488 0.0 
0.999258 -0.000263086 0.0 
1.00185 -0.00162622 0.0 
1.00264 -0.000207631 0.0 
1.00078 -0.0023178 0.0 
1.00104 -0.000348631 0.0 
1.00052 -7.4164e-05 0.0 
0.999759 -0.000763642 0.0 
1.00069 0.000771894 0.0 
1.00184 0.0327366 0.0 
1.00142 0.000477981 0.0 
-2.37509e-09 2.6347e-11 0.0 
1.00048 0.00178584 0.0 
1.00083 -0.00185396 0.0 
1.00368 0.00568094 0.0 
1.00595 -0.00261505 0.0 
0.999997 -0.000463273 0.0 
1.00026 -0.00126096 0.0 
1.00019 -0.00298564 0.0 
0.999042 -0.00214613 0.0 
1.00289 -0.000569365 0.0 
0.999601 -0.0005436 0.0 
0.994498 0.00329283 0.0 
0.999596 -0.0035135 0.0 
0.999467 0.000271961 0.0 
1.00159 -0.00294484 0.0 
0.966512 0.000318517 0.0 
1.00153 -0.00170341 0.0 
1.00075 -0.00149108 0.0 
1.00159 -0.000963924 0.0 
1.00091 -0.000992103 0.0 
0.999182 -0.000490124 0.0 
1.00159 -0.00422826 0.0 
0.999982 0.00136845 0.0 
0.998609 -0.000290384 0.0 
1.00362 -0.000393094 0.0 
0.180623 -0.0164167 0.0 
1.00243 -0.000709726 0.0 
1.00138 -0.000149691 0.0 
0.997314 0.00142699 0.0 
1.00008 -0.000890747 0.0 
0.998834 -0.000120071 0.0 
1.00374 -0.00101724 0.0 
1.00007 -0.000366392 0.0 
1.00068 -0.00167018 0.0 