<VTKFile type="UnstructuredGrid" version="0.1" byte_order="LittleEndian">
  <UnstructuredGrid>
    <Piece NumberOfPoints="23679" NumberOfCells="47236">
      <Points>
        <DataArray type = "Float64" NumberOfComponents="3" format="ascii">
-5 -7 0.0 
15.5 -7 0.0 
15.5 7 0.0 
-5 7 0.0 
7.63511 2.91639 0.0 
1.87049 1.67084 0.0 
-0.605974 -0.287769 0.0 
2.37337 -3.10656 0.0 
0.929906 2.48659 0.0 
0.824948 -0.0289232 0.0 
0.579762 -2.6174 0.0 
2.75639 -0.320238 0.0 
0.600589 -0.0279367 0.0 
0.809974 0.0358912 0.0 
4.52511 -0.0925724 0.0 
0.692729 -0.023898 0.0 
2.14598 1.71184 0.0 
4.47114 -0.725108 0.0 
2.94972 0.812693 0.0 
-2.51884 -5.20772 0.0 
0.933054 -0.00978829 0.0 
-3.39004 -0.0550254 0.0 
0.209319 0.0741243 0.0 
-0.14562 -1.1416 0.0 
0.16355 -0.0415655 0.0 
4.37129 -0.146188 0.0 
0.125896 0.0617342 0.0 
2.89507 -0.00321849 0.0 
0.117818 -0.0547525 0.0 
0.74577 -0.0190427 0.0 
1.20907 -2.59566 0.0 
7.05945 1.36908 0.0 
1.18414 0.837326 0.0 
-0.664239 0.00933663 0.0 
0.988285 -0.635056 0.0 
0.79931 -0.0154644 0.0 
-0.169857 -0.752454 0.0 
-0.535193 0.781979 0.0 
4.50646 0.336854 0.0 
0.675201 -0.447934 0.0 
4.33956 3.92927 0.0 
7.20401 -0.547152 0.0 
5.06202 0.761268 0.0 
-1.83764 -0.830466 0.0 
2.97447 -2.59497 0.0 
1.77447 -4.2029 0.0 
0.203756 0.0741702 0.0 
2.3905 -0.208726 0.0 
-2.38226 0.0491773 0.0 
1.57579 -4.90006 0.0 
0.892623 0.876713 0.0 
0.619187 0.0692661 0.0 
1.81524 2.22933 0.0 
3.20393 -0.375619 0.0 
0.560088 -0.0307549 0.0 
-4.00064 -1.06423 0.0 
4.1637 1.41296 0.0 
2.03909 0.577378 0.0 
3.97155 -0.451817 0.0 
-1.0713 0.305678 0.0 
1.24518 -0.853569 0.0 
5.30713 0.379083 0.0 
0.993214 0.00283989 0.0 
0.513972 -3.72515 0.0 
4.25372 1.90694 0.0 
0.87556 0.025233 0.0 
0.401296 0.0780688 0.0 
0.44761 -0.0359067 0.0 
-3.06259 -0.640688 0.0 
0.58449 -3.29242 0.0 
4.47137 0.702541 0.0 
-0.523713 -0.272593 0.0 
-0.477755 -0.422453 0.0 
0.570246 -0.533547 0.0 
0.538433 -0.0310055 0.0 
5.2741 -1.01059 0.0 
2.21102 -1.39328 0.0 
1.30783 -0.274121 0.0 
4.18709 -1.48886 0.0 
-1.19726 -3.28581 0.0 
-0.0359698 -1.75399 0.0 
0.617039 -0.0263973 0.0 
5.83653 0.150199 0.0 
5.57946 0.224905 0.0 
0.377841 -0.038928 0.0 
1.38254 1.36675 0.0 
2.58372 -1.06479 0.0 
4.70454 -3.6075 0.0 
0.551438 0.113173 0.0 
0.532912 -0.0384617 0.0 
-0.392031 -0.729994 0.0 
4.38556 1.53498 0.0 
-1.34387 -2.96962 0.0 
4.73748 -0.295427 0.0 
5.13252 -2.84762 0.0 
5.34987 1.08334 0.0 
0.326684 0.0802051 0.0 
1.0681 0.191919 0.0 
0.292684 0.0800176 0.0 
-0.288073 -0.693253 0.0 
0.850052 0.029488 0.0 
7.72674 -2.22661 0.0 
5.73402 0.253504 0.0 
3.27298 3.73283 0.0 
2.31769 -0.889324 0.0 
3.24694 -2.57408 0.0 
-0.795775 -5.8192 0.0 
0.667923 -0.0361302 0.0 
0.835769 0.0314682 0.0 
4.69839 -1.50939 0.0 
4.91709 3.01814 0.0 
0.151849 -0.0409087 0.0 
3.55148 0.264681 0.0 
0.842117 -0.794382 0.0 
2.65591 1.43349 0.0 
0.932811 0.0144733 0.0 
-0.764917 -0.926758 0.0 
3.60734 -0.915315 0.0 
-0.605852 0.649115 0.0 
5.76621 -0.263827 0.0 
3.08877 -0.924843 0.0 
0.899825 -0.00795866 0.0 
6.80384 1.26814 0.0 
3.19847 -0.826277 0.0 
0.0166341 -0.0962489 0.0 
3.983 -1.51439 0.0 
5.81155 1.05052 0.0 
0.403773 -0.0376754 0.0 
4.06583 -0.737319 0.0 
3.85222 3.16404 0.0 
7.27994 -0.917065 0.0 
7.01199 -1.44503 0.0 
5.44634 0.7472 0.0 
5.43495 -0.0201864 0.0 
1.51213 -0.834065 0.0 
1.97076 0.806002 0.0 
0.634487 0.0595385 0.0 
-0.572414 -4.29099 0.0 
1.8826 -0.733417 0.0 
0.759381 -0.180619 0.0 
0.40132 0.0778474 0.0 
0.23454 -0.0430222 0.0 
-0.802406 2.95957 0.0 
0.691963 0.0549995 0.0 
5.47277 -0.740356 0.0 
14.1487 4.94071 0.0 
0.0736498 -1.30758 0.0 
-3.24273 0.882011 0.0 
1.37104 -0.876055 0.0 
-0.483647 -0.194829 0.0 
2.83565 1.06937 0.0 
5.52957 -1.21731 0.0 
0.947149 -0.00912481 0.0 
-0.408161 -0.611461 0.0 
-0.824132 1.91234 0.0 
-0.28194 0.734853 0.0 
-2.58987 -0.112571 0.0 
5.39673 0.0810302 0.0 
0.347037 -1.34491 0.0 
1.28521 2.08402 0.0 
0.220369 -0.0424097 0.0 
-0.490215 0.575937 0.0 
1.64934 -1.3049 0.0 
0.153085 0.0664047 0.0 
-0.251695 -2.55503 0.0 
0.826156 -0.0139773 0.0 
3.35673 0.186652 0.0 
4.62807 -2.39408 0.0 
-1.05781 -1.39579 0.0 
-2.54531 4.21509 0.0 
1.60336 1.51116 0.0 
0.713093 0.0498095 0.0 
0.643534 0.0642145 0.0 
-3.64101 4.81173 0.0 
-1.26922 -3.94313 0.0 
-0.342655 -1.12768 0.0 
3.30326 0.952175 0.0 
5.64264 0.331249 0.0 
1.34559 -0.214642 0.0 
1.60527 0.321358 0.0 
0.328683 -0.0401423 0.0 
3.81728 0.37784 0.0 
4.37562 0.758715 0.0 
5.5831 -1.82905 0.0 
-1.49688 0.101849 0.0 
-1.70027 -0.343758 0.0 
0.937041 0.0136815 0.0 
5.60623 1.42522 0.0 
-1.23169 -0.42816 0.0 
1.69627 2.52442 0.0 
1.36245 -1.5082 0.0 
1.25107 -3.80948 0.0 
2.74679 0.528168 0.0 
5.36614 -1.19177 0.0 
0.605019 1.16677 0.0 
-4.58423 -1.62108 0.0 
-2.02651 2.34708 0.0 
3.99339 3.63024 0.0 
-1.36142 -0.0750085 0.0 
5.19766 -0.482867 0.0 
-3.85513 -1.43107 0.0 
0.966422 0.00919783 0.0 
0.247834 0.0870881 0.0 
-0.465649 -0.817954 0.0 
4.29025 4.26714 0.0 
1.18312 -0.431176 0.0 
9.21986 0.0258833 0.0 
5.39136 -0.625475 0.0 
5.56604 0.611257 0.0 
1.96388 -1.61685 0.0 
0.196106 -0.0423443 0.0 
2.93186 0.364486 0.0 
5.88518 0.822328 0.0 
0.824138 -0.0139123 0.0 
-0.47228 -0.526413 0.0 
0.477118 -0.0338206 0.0 
-4.64673 -2.62107 0.0 
4.10712 -0.887195 0.0 
0.710355 0.0501717 0.0 
1.64936 -0.864917 0.0 
-1.61346 -3.22424 0.0 
0.0092848 0.0284272 0.0 
7.26993 2.53793 0.0 
1.1048 2.83071 0.0 
10.1588 1.30502 0.0 
-0.263385 -0.26391 0.0 
13.7005 7 0.0 
0.52333 0.0703707 0.0 
4.58595 -1.29531 0.0 
5.62067 -0.188463 0.0 
0.799738 -0.0147854 0.0 
11.9625 -2.20661 0.0 
5.40435 0.619553 0.0 
3.28687 -1.45096 0.0 
0.458966 0.0872446 0.0 
5.51568 -0.596029 0.0 
-1.63011 3.37507 0.0 
0.293181 -0.0414659 0.0 
0.865321 -2.71027 0.0 
0.786038 -0.0158333 0.0 
0.0736186 0.0492692 0.0 
4.13993 -2.76136 0.0 
0.881421 -0.0921271 0.0 
0.266317 -3.38104 0.0 
4.88629 -0.852705 0.0 
0.437008 0.076424 0.0 
3.8816 4.12562 0.0 
7.92184 -0.0908268 0.0 
0.176354 -0.0480078 0.0 
-0.662142 0.143724 0.0 
6.26015 0.128606 0.0 
0.915518 -0.00670685 0.0 
3.62021 -1.04763 0.0 
1.34876 0.720027 0.0 
0.982357 -3.49725 0.0 
0.663709 0.0566737 0.0 
5.3066 -0.705713 0.0 
-0.944514 -3.61431 0.0 
1.79294 -0.661223 0.0 
-0.342215 2.27409 0.0 
5.88842 -0.367403 0.0 
0.211839 -0.0420107 0.0 
0.654413 -0.0369233 0.0 
3.68564 6.54289 0.0 
5.00064 1.8515 0.0 
0.69027 0.0546811 0.0 
1.12166 0.441142 0.0 
7.31715 -3.60167 0.0 
2.79958 1.64327 0.0 
0.433465 0.0764782 0.0 
0.584196 0.0652607 0.0 
0.0636322 -0.695974 0.0 
-1.81416 1.63551 0.0 
0.74075 0.0465749 0.0 
2.69342 -1.49048 0.0 
4.86008 -1.00044 0.0 
0.822907 -0.0142337 0.0 
-0.164664 0.307939 0.0 
4.48127 5.51069 0.0 
4.4895 -4.79993 0.0 
5.37438 1.55243 0.0 
0.123991 1.28664 0.0 
6.41782 -0.499678 0.0 
3.16721 -0.70129 0.0 
1.99155 -0.729552 0.0 
4.69954 4.16905 0.0 
-1.91695 -2.36563 0.0 
8.09216 1.16816 0.0 
0.242046 0.0802658 0.0 
2.34355 2.47663 0.0 
2.72841 -0.285972 0.0 
13.5916 6.05949 0.0 
1.64671 4.40597 0.0 
3.03209 1.84093 0.0 
-0.498111 0.662759 0.0 
0.765551 -2.10462 0.0 
5.25655 0.61914 0.0 
6.04759 -2.75505 0.0 
1.12471 -0.237361 0.0 
6.40695 -2.14103 0.0 
4.37139 0.883681 0.0 
0.240004 -0.042139 0.0 
-4.55867 -4.42627 0.0 
-1.09286 3.96435 0.0 
-1.07351 0.572111 0.0 
3.73338 -0.828021 0.0 
-0.766762 -0.403459 0.0 
0.402752 -1.68281 0.0 
0.925255 0.0164317 0.0 
0.88786 -0.943606 0.0 
0.505244 -0.025873 0.0 
-0.299243 0.0389379 0.0 
3.36416 0.723434 0.0 
0.636773 1.7916 0.0 
0.0435288 1.09333 0.0 
0.74756 2.65039 0.0 
5.12608 -1.02106 0.0 
3.05399 0.794214 0.0 
3.3685 -2.29577 0.0 
9.40833 4.18552 0.0 
0.726496 1.10014 0.0 
-1.43587 -0.265452 0.0 
1.53809 -0.965095 0.0 
3.65342 -1.2467 0.0 
3.58193 2.86195 0.0 
1.58453 1.05649 0.0 
0.69113 -0.0216886 0.0 
4.67304 -0.737386 0.0 
2.403 -2.53676 0.0 
-0.883615 -1.03632 0.0 
0.570985 0.067201 0.0 
4.5489 1.01634 0.0 
1.30188 0.95494 0.0 
4.78484 -2.98767 0.0 
0.647276 3.74647 0.0 
1.64058 -1.98991 0.0 
5.60464 1.66025 0.0 
-2.46641 -2.76999 0.0 
0.0236771 0.0292808 0.0 
1.83737 -2.85625 0.0 
0.712397 -0.0207427 0.0 
-0.929233 -3.15638 0.0 
5.62429 -0.0217768 0.0 
0.696715 -0.0236006 0.0 
4.31467 0.462465 0.0 
1.90518 -1.00498 0.0 
3.8123 -0.317197 0.0 
-1.40698 0.43063 0.0 
8.12686 0.163945 0.0 
0.0912505 -0.0517404 0.0 
0.360402 0.0788181 0.0 
0.766222 5.08386 0.0 
0.543306 0.227627 0.0 
0.768677 -0.887089 0.0 
13.8069 6.49329 0.0 
3.14545 -0.527242 0.0 
3.00213 0.685174 0.0 
-3.26851 -1.17579 0.0 
0.326091 -0.0407782 0.0 
-0.350969 -1.28117 0.0 
-1.34372 -4.38367 0.0 
-1.47047 0.274883 0.0 
8.69891 -0.824176 0.0 
0.572752 0.0666296 0.0 
3.02391 1.56815 0.0 
0.546825 -0.0304958 0.0 
7.53034 -2.92118 0.0 
0.862614 -3.9233 0.0 
7.46433 -0.686568 0.0 
0.435695 0.0763326 0.0 
-0.291216 -0.600905 0.0 
0.958024 -0.00418663 0.0 
0.996359 0.00209859 0.0 
-3.04054 -1.35802 0.0 
7.86523 -1.29492 0.0 
0.824153 0.0339519 0.0 
-2.0843 -1.39076 0.0 
2.0242 4.23744 0.0 
6.10554 -1.09258 0.0 
0.070474 0.0518922 0.0 
0.253412 0.0852338 0.0 
4.90662 -3.37133 0.0 
5.3389 -1.37998 0.0 
8.18441 -5.4394 0.0 
4.74018 -1.11041 0.0 
-1.45792 -1.69797 0.0 
-0.658439 1.28669 0.0 
-1.47154 1.02941 0.0 
0.548603 -1.30682 0.0 
-4.28372 4.01846 0.0 
0.597388 -0.031556 0.0 
0.976283 3.91053 0.0 
-1.97604 3.44687 0.0 
-0.823498 -1.2495 0.0 
-0.676338 -0.322971 0.0 
0.0194499 -2.00073 0.0 
6.06625 2.2173 0.0 
4.77636 1.32682 0.0 
3.5286 -1.40716 0.0 
2.2348 6.10147 0.0 
4.3501 1.14584 0.0 
-0.374853 0.997283 0.0 
0.331239 -0.0398749 0.0 
2.92416 0.944765 0.0 
-1.08711 -0.79613 0.0 
-2.10643 0.811211 0.0 
10.0853 -2.20029 0.0 
9.19723 -1.4685 0.0 
-3.63493 -2.23583 0.0 
9.13289 -4.40814 0.0 
0.13646 -0.0401233 0.0 
3.73879 -1.49966 0.0 
1.16246 1.31001 0.0 
1.76621 -0.985528 0.0 
0.279409 0.0783782 0.0 
4.49882 0.813878 0.0 
0.0773295 0.0501322 0.0 
-1.7711 -2.7915 0.0 
2.21785 -2.83793 0.0 
1.9729 0.35934 0.0 
6.07917 0.172121 0.0 
-1.06801 -1.19434 0.0 
-0.742511 -0.787541 0.0 
4.55801 -0.996424 0.0 
10.0032 -3.21238 0.0 
4.23955 3.27 0.0 
4.4588 0.213546 0.0 
-3.41169 -1.50587 0.0 
0.374392 0.944982 0.0 
[...]
<PointData>
  <DataArray type = "Float64" Name="VitesseP1" NumberOfComponents="3" format="ascii">
1 0 0.0 
1.00141 0 0.0 
0.998712 0 0.0 
1 0 0.0 
0.998741 -0.002127 0.0 
1.00623 -0.00607591 0.0 
0.983544 -0.00249263 0.0 
1.00115 -0.000841462 0.0 
1.00679 -0.00102366 0.0 
0.624713 0.0384528 0.0 
1.00101 -0.00114366 0.0 
0.999742 -0.00354223 0.0 
0.0115191 0.000356767 0.0 
0 0 0.0 
0.944425 -0.00179249 0.0 
0.0875789 0.00545907 0.0 
1.00496 -0.00561403 0.0 
1.0019 -0.00223839 0.0 
1.00158 -0.00559762 0.0 
1.00009 -0.000177484 0.0 
0.149112 0.0100323 0.0 
0.999511 0.00133249 0.0 
0.0777053 0.00947413 0.0 
1.00082 -0.00589029 0.0 
1.25616e-08 -4.78928e-10 0.0 
0.998343 -0.00262282 0.0 
3.13039e-08 6.97048e-09 0.0 
0.845149 -0.00399469 0.0 
1.13939 -0.112904 0.0 
0.0182099 0.00170276 0.0 
1.0011 -0.000899548 0.0 
1.00003 -0.00352855 0.0 
1.01456 -0.01711 0.0 
0.982486 0.00835414 0.0 
1.00265 0.00826875 0.0 
0.0132093 0.000624622 0.0 
0.999259 -0.0119131 0.0 
1.00317 0.0187142 0.0 
1.00117 -0.00314031 0.0 
1.01659 0.0122281 0.0 
1.00065 -0.00136509 0.0 
1.0045 -0.00133597 0.0 
1.0013 -0.00293825 0.0 
0.997258 0.000733929 0.0 
1.00127 -0.00103427 0.0 
1.001 -0.000618558 0.0 
0.174189 0.0175553 0.0 
0.998353 -0.00413862 0.0 
0.998383 0.00268125 0.0 
1.00091 -0.000462485 0.0 
1.02352 -0.013317 0.0 
0.411505 -0.0405328 0.0 
1.0054 -0.00369195 0.0 
1.00081 -0.00314335 0.0 
0.030886 0.00188283 0.0 
0.999822 0.000426719 0.0 
1.00136 -0.0032005 0.0 
1.001 -0.0107041 0.0 
1.00167 -0.00261151 0.0 
0.993601 0.00924743 0.0 
1.0003 0.00335382 0.0 
1.00085 -0.00258383 0.0 
-3.04329e-09 -6.38775e-10 0.0 
1.00075 -0.000779311 0.0 
1.00144 -0.00282083 0.0 
-0.000845103 0.000158914 0.0 
3.21582e-08 -4.24523e-10 0.0 
0 0 0.0 
0.999185 0.00108855 0.0 
1.00081 -0.000897799 0.0 
1.00138 -0.00316191 0.0 
0.980863 -0.00444076 0.0 
0.986112 -0.00872504 0.0 
1.01723 0.00500021 0.0 
0 0 0.0 
1.00221 -0.00208859 0.0 
1.00008 -0.00101802 0.0 
0.987524 0.00637071 0.0 
1.00169 -0.00178904 0.0 
1.00006 -0.000739891 0.0 
1.00098 -0.00268106 0.0 
0 0 0.0 
0.985678 -0.00265924 0.0 
1.01316 -0.0014627 0.0 
3.42255e-08 1.56905e-09 0.0 
1.00987 -0.008083 0.0 
0.999977 -0.00182811 0.0 
1.00179 -0.00102879 0.0 
1.13225 -0.0689799 0.0 
0.388357 0.0202797 0.0 
0.994774 -0.00942755 0.0 
1.00135 -0.00296789 0.0 
0.999867 -0.000790527 0.0 
1.00209 -0.0023933 0.0 
1.00204 -0.00137253 0.0 
1.001 -0.00288563 0.0 
0.116081 0.000464734 0.0 
0.996785 -0.061211 0.0 
0.148799 0.0037107 0.0 
0.995528 -0.0118441 0.0 
-1.05637e-09 1.90275e-11 0.0 
1.00323 -0.00141368 0.0 
1.00656 -0.00398036 0.0 
1.00152 -0.00168634 0.0 
0.99927 -0.00175116 0.0 
1.00135 -0.00109126 0.0 
1.00036 -0.000209771 0.0 
0.595576 0.0345017 0.0 
0 0 0.0 
1.00195 -0.00183099 0.0 
1.00067 -0.00179004 0.0 
0 0 0.0 
1.00088 -0.004085 0.0 
1.00555 0.00448871 0.0 
1.00293 -0.00558297 0.0 
0 0 0.0 
0.995351 -0.00381294 0.0 
1.00126 -0.00226478 0.0 
0.999122 0.0191572 0.0 
1.00474 -0.00461869 0.0 
1.00064 -0.00228216 0.0 
0 0 0.0 
1.00074 -0.00372626 0.0 
1.00074 -0.00242471 0.0 
0.994301 -0.169996 0.0 
1.00157 -0.00175367 0.0 
1.00037 -0.00330782 0.0 
0 0 0.0 
1.00162 -0.00232598 0.0 
1.00139 -0.00205237 0.0 
1.00482 -0.00237835 0.0 
1.00295 -0.00234715 0.0 
1.00096 -0.00310138 0.0 
0.907147 -0.00215516 0.0 
0.998486 0.00169507 0.0 
1.00312 -0.0106541 0.0 
0 0 0.0 
1.00039 -0.000560487 0.0 
0.99766 -0.000684321 0.0 
1.01637 0.0358306 0.0 
0 0 0.0 
0.0478158 0.000485995 0.0 
1.00354 0.00262306 0.0 
0.0611869 -0.0075778 0.0 
1.00245 -0.00236514 0.0 
0.998478 0.000372511 0.0 
1.00219 -0.00428366 0.0 
0.999775 0.0019779 0.0 
0.99943 0.00243596 0.0 
0.976336 -0.00290374 0.0 
1.00218 -0.00574361 0.0 
1.00248 -0.00182947 0.0 
0.160756 0.0106555 0.0 
0.991854 -0.0103889 0.0 
1.00488 0.00587673 0.0 
1.00897 0.0248235 0.0 
0.998651 0.00215874 0.0 
0.962761 -0.00761775 0.0 
1.00308 -0.00266051 0.0 
1.00769 -0.00313412 0.0 
7.98081e-09 -1.79606e-10 0.0 
0.998739 0.0237048 0.0 
1.0001 6.68241e-05 0.0 
0 0 0.0 
1.00044 -0.00143488 0.0 
0.02522 0.00192101 0.0 
1.00004 -0.00434082 0.0 
1.00188 -0.0014564 0.0 
0.997793 -0.00193791 0.0 
1.00071 0.00107144 0.0 
1.00767 -0.00702546 0.0 
0 0 0.0 
0.251676 -0.0272265 0.0 
1.00019 0.000481189 0.0 
1.00017 -0.000540307 0.0 
0.999102 -0.00584163 0.0 
1.00171 -0.0046719 0.0 
0.999197 -0.000930062 0.0 
0.985337 0.0039578 0.0 
0.996689 -0.0178773 0.0 
0 0 0.0 
1.00105 -0.00376611 0.0 
1.0014 -0.0032245 0.0 
1.00223 -0.00169444 0.0 
0.995608 0.00504014 0.0 
0.996208 0.00235738 0.0 
0 0 0.0 
1.00057 -0.002764 0.0 
0.993703 0.00141481 0.0 
1.00521 -0.00276633 0.0 
1.00108 -1.00958e-05 0.0 
1.00093 -0.000713599 0.0 
1.00082 -0.00626599 0.0 
1.00232 -0.00221477 0.0 
1.02134 -0.00157534 0.0 
0.999981 0.000102612 0.0 
1.00143 0.00328645 0.0 
1.001 -0.00164912 0.0 
0.994182 0.00419455 0.0 
1.00236 -0.00199525 0.0 
0.999791 0.000328456 0.0 
-0.0126092 0.00255767 0.0 
1.09449 0.082524 0.0 
0.995527 -0.00754434 0.0 
1.00059 -0.00117691 0.0 
0.994849 0.00999364 0.0 
0.989021 -0.00885052 0.0 
1.00315 -0.0028492 0.0 
1.00195 -0.00292124 0.0 
1.00054 -0.0007068 0.0 
2.00416e-08 -9.77147e-10 0.0 
1.00048 -0.00550369 0.0 
1.00185 -0.00274392 0.0 
0.0169184 0.00110874 0.0 
0.989197 -0.00909018 0.0 
0 0 0.0 
0.999996 1.59318e-05 0.0 
1.0017 -0.00219679 0.0 
0 0 0.0 
0.998472 0.000734211 0.0 
0.999934 -0.000623891 0.0 
0.690387 0.504546 0.0 
0.999021 -0.0024493 0.0 
1.00542 -0.00110692 0.0 
0.994598 -0.000552718 0.0 
0.973182 -0.0216091 0.0 
0.998436 0 0.0 
0 0 0.0 
1.0019 -0.0019156 0.0 
0.992795 -0.000954179 0.0 
0 0 0.0 
1.00287 0.00214016 0.0 
1.00104 -0.00277425 0.0 
1.00103 -0.00173291 0.0 
0.858396 -0.0387675 0.0 
1.0019 -0.0015925 0.0 
1.00181 0.00201597 0.0 
1.79137e-08 8.21382e-10 0.0 
1.00104 -0.000998655 0.0 
0 0 0.0 
6.97969e-08 2.11066e-08 0.0 
1.00169 -0.0011903 0.0 
1.00076 0.046713 0.0 
1.00069 -0.000903015 0.0 
1.00215 -0.00212805 0.0 
0 0 0.0 
1.00088 -0.00133403 0.0 
0.978848 -0.00394328 0.0 
0.696198 -0.026069 0.0 
0.984415 0.0131441 0.0 
0.97654 -0.00286854 0.0 
0 0 0.0 
1.00124 -0.00212996 0.0 
1.00949 -0.0190365 0.0 
1.0009 -0.000801842 0.0 
0.00472766 -0.000571339 0.0 
1.00188 -0.00198129 0.0 
1.00023 -0.00071071 0.0 
0.996867 -0.000360196 0.0 
1.00629 0.00378709 0.0 
1.01161 -0.00618649 0.0 
0 0 0.0 
0.599951 0.0344149 0.0 
1.00035 -0.000169686 0.0 
1.00102 -0.00248615 0.0 
0.0424218 -0.00519951 0.0 
1.01189 -0.0354374 0.0 
1.00273 -0.000879554 0.0 
1.00304 -0.00484949 0.0 
0 0 0.0 
8.06407e-09 -5.28836e-10 0.0 
1.00582 -0.0134394 0.0 
1.00129 0.00475573 0.0 
0.00306275 -0.000410844 0.0 
1.00057 -0.00145077 0.0 
1.00212 -0.00209821 0.0 
0.0267995 0.00160102 0.0 
0.989841 0.060014 0.0 
1.00018 -0.000551062 0.0 
1.00161 -0.000623082 0.0 
1.00092 -0.00263544 0.0 
1.01595 0.00756648 0.0 
1.01126 -0.00586189 0.0 
1.00054 -0.00262112 0.0 
0.997868 -0.00118507 0.0 
1.00039 -0.00115995 0.0 
0.999438 -0.000518378 0.0 
0.997768 -0.00485722 0.0 
0.553686 0.0405282 0.0 
1.00371 -0.00331655 0.0 
0.999442 -0.00364609 0.0 
0.998375 0.000149501 0.0 
1.00217 -0.000673175 0.0 
1.00275 -0.0041746 0.0 
1.00075 0.0216689 0.0 
1.00137 -0.00113453 0.0 
1.00081 -0.00319823 0.0 
1.00242 -0.00141348 0.0 
0.986309 0.0173034 0.0 
1.00267 -0.0015995 0.0 
1.00141 -0.00321427 0.0 
0 0 0.0 
1 -2.84717e-05 0.0 
1.00198 0.00134838 0.0 
0.996789 0.0106702 0.0 
1.00137 -0.00232871 0.0 
0.989063 -0.00156192 0.0 
1.00204 -0.00195456 0.0 
-2.70342e-08 4.28611e-09 0.0 
1.00419 0.00261807 0.0 
0 0 0.0 
0.952674 0.0175767 0.0 
1.00141 -0.00458342 0.0 
1.01174 -0.00031305 0.0 
1.01828 0.0122575 0.0 
1.00632 -0.000294616 0.0 
1.00205 -0.0020352 0.0 
1.00151 -0.00531403 0.0 
1.00132 -0.00121541 0.0 
0.997927 -0.000723507 0.0 
1.02155 -0.00500782 0.0 
0.994908 0.00275458 0.0 
0.999186 0.00114934 0.0 
1.00127 -0.00194282 0.0 
1.00174 -0.00245089 0.0 
1.00785 -0.0113644 0.0 
0 0 0.0 
1.002 -0.0021964 0.0 
1.00109 -0.000943001 0.0 
0.996278 -0.0029556 0.0 
0.0281752 -0.00219606 0.0 
1.00133 -0.00304706 0.0 
1.01212 -0.0141066 0.0 
1.00189 -0.00125378 0.0 
1.00335 5.4053e-05 0.0 
1.00093 -0.000658159 0.0 
1.00077 -0.00252695 0.0 
0.999709 -0.000278903 0.0 
5.76011e-08 2.91056e-08 0.0 
1.0011 -0.000842086 0.0 
2.50367e-08 1.89572e-09 0.0 
1.00012 -0.000883917 0.0 
0.919556 -0.000630289 0.0 
0.084867 0.00558396 0.0 
1.00124 -0.00327536 0.0 
0.999042 -0.000465263 0.0 
1.00153 -0.00282232 0.0 
0.996543 0.00703676 0.0 
0.98449 -0.00709661 0.0 
1.14142 -0.155149 0.0 
1.22536e-08 5.54505e-10 0.0 
1.00171 -4.57005e-05 0.0 
1.10743 -0.0388987 0.0 
1.00603 0.0024388 0.0 
0.99843 8.07779e-05 0.0 
1.00049 -0.00291176 0.0 
1.00137 -0.00546469 0.0 
0.999463 0.000583212 0.0 
0.0124928 0.000616596 0.0 
0.999326 -0.00463124 0.0 
1.00021 -0.000435826 0.0 
0.996154 0.00597632 0.0 
1.00873 -0.00377626 0.0 
0.00856843 -0.000986939 0.0 
1.00252 -0.00462482 0.0 
0 0 0.0 
1.00302 -0.00109947 0.0 
1.00082 -0.000701749 0.0 
1.00628 -0.00364692 0.0 
0 0 0.0 
0.99356 -0.0138089 0.0 
0 0 0.0 
0 0 0.0 
0.999331 0.000480563 0.0 
1.00276 -0.00247457 0.0 
0.000579121 -0.000101817 0.0 
0.998485 7.22454e-05 0.0 
1.00211 -0.00098515 0.0 
1.00224 -0.00202809 0.0 
0.797428 0.251777 0.0 
0.959777 0.0669717 0.0 
1.00188 -0.00114709 0.0 
1.00225 -0.00196312 0.0 
1.00258 -0.000223895 0.0 
1.002 -0.00198314 0.0 
0.998568 -0.00101901 0.0 
1.00547 0.0106426 0.0 
0.999911 0.00710376 0.0 
1.00348 -0.00151985 0.0 
1.00004 0.000393342 0.0 
0.187761 0.010847 0.0 
1.00303 -0.000312321 0.0 
1.00141 0.00187522 0.0 
0.9974 -0.00293398 0.0 
0.986137 -0.0018117 0.0 
1.00085 -0.00206876 0.0 
1.00011 -0.00237546 0.0 
1.0011 -0.00284383 0.0 
1.00121 -0.00179923 0.0 
1.00096 -0.000251414 0.0 
1.0013 -0.00316077 0.0 
1.00873 0.0163457 0.0 
0 0 0.0 
1.00189 -0.0055978 0.0 
0.994766 -0.0012529 0.0 
0.999193 0.00442297 0.0 
1.00437 0.000688817 0.0 
1.00455 -0.0013743 0.0 
0.999823 8.10247e-05 0.0 
1.00295 -0.000124733 0.0 
0 0 0.0 
1.0014 -0.00175063 0.0 
1.01266 -0.00789563 0.0 
0.998951 4.21167e-05 0.0 
0 0 0.0 
1.0014 -0.00313481 0.0 
0 0 0.0 
0.999703 -0.000605096 0.0 
1.00113 -0.00086563 0.0 
0.998619 -0.0112528 0.0 
0.982402 -0.00805068 0.0 
0.99697 -0.00196472 0.0 
0.994031 -0.00413541 0.0 
1.00196 -0.00207119 0.0 
1.00344 0.000317796 0.0 
1.00104 -0.00182287 0.0 
1.00073 -0.00315729 0.0 
0.999604 0.000360788 0.0 
1.02777 0.00560495 0.0 
0 0 0.0 
1.00115 0.00219552 0.0 
1.02219 0.0159332 0.0 
0.99244 -0.00417596 0.0 
0.998548 0.0133677 0.0 
1.00024 -0.00127776 0.0 
0.0114266 -0.00166691 0.0 
1.00174 -0.00188979 0.0 
1.00804 -0.00873908 0.0 
1.00099 0.00167873 0.0 
0.995689 -0.00050367 0.0 
4.3142e-08 8.26775e-10 0.0 
1.00298 0.00145346 0.0 
1.00129 -0.00296369 0.0 
0 0 0.0 
1.00024 -0.00183158 0.0 
1.00284 0.00630297 0.0 
2.61606e-07 -9.20455e-09 0.0 
1.00034 -0.00239512 0.0 
1.00227 -0.00289414 0.0 
0.999955 -0.00214795 0.0 
0.0183236 0.000491797 0.0 
1.00791 0.00150978 0.0 
1.00238 -0.000336605 0.0 
1.00258 0.00330848 0.0 
1.01455 0.00158769 0.0 
1.00209 0.000716608 0.0 
1.00028 -0.00106215 0.0 
1.0027 2.20155e-06 0.0 
1.00023 0.00403395 0.0 
1.00141 -0.00217405 0.0 
0.108169 0.0203396 0.0 
1.00105 -0.00106265 0.0 
0.283333 0.0217404 0.0 
1.00166 -0.000873011 0.0 
1.00014 0.00118756 0.0 
1.00016 0.00279198 0.0 
1.00126 -0.000436561 0.0 
1.00278 -0.00141783 0.0 
1.00005 0.00192337 0.0 
0.997259 0.00458811 0.0 
1.00211 -0.000350341 0.0 
1.02502 -0.00779754 0.0 
1.00018 -0.000810212 0.0 
1.00283 0.0036827 0.0 
0 0 0.0 
1.00094 -0.00256625 0.0 
1.00136 -0.00437598 0.0 
0.998434 0.00369045 0.0 
1.00552 0.0220044 0.0 
1.00024 -0.00605731 0.0 
0.9988 -0.000444811 0.0 
1.00225 -0.00117215 0.0 
0.948789 -0.000894691 0.0 
0.963357 0.00133064 0.0 
8.7882e-09 1.79288e-10 0.0 
1.00283 0.00217853 0.0 
1.00123 -0.00305645 0.0 
1.00307 -0.00169291 0.0 
1.00419 -0.000896084 0.0 
0.995913 0.0037561 0.0 
0 0 0.0 
0.996814 -0.000494636 0.0 
0.999897 0.000497822 0.0 
1.00193 -0.00286816 0.0 
0 0 0.0 
0.999978 6.84505e-05 0.0 
1.00019 -0.000796136 0.0 
1.00211 -0.00131936 0.0 
0.99912 -0.000930138 0.0 
1.00121 -0.00071686 0.0 
1.0064 -0.00475214 0.0 
0.931673 0.00187753 0.0 
0.999986 -0.00288586 0.0 
1.00322 -0.000534219 0.0 
1.00184 -0.00332469 0.0 
0.998492 0.000161014 0.0 
1.00108 -0.000852102 0.0 
1.00157 -0.00163608 0.0 
1.00001 0.00446149 0.0 
1.00254 -0.0042408 0.0 
0.998178 0.000189014 0.0 
1.00165 -0.00098906 0.0 
1.00172 -0.00210139 0.0 
1.00009 0.00034541 0.0 
0.0902985 -0.00559478 0.0 
1.03504 -0.0446823 0.0 
1.00223 -0.000441812 0.0 
0.999955 0.00166682 0.0 
0.14361 -0.00817746 0.0 
1.00124 -0.00262143 0.0 
0.566611 -0.055012 0.0 
1.00269 -0.00327001 0.0 
1.00004 -0.000148 0.0 
0.997794 0.00330508 0.0 
1.00075 -0.00109699 0.0 
1.00247 -0.00418766 0.0 
0.00958567 0.000377904 0.0 
1.0006 -0.000278983 0.0 
1.0004 -0.00176021 0.0 
1.00253 -0.00139899 0.0 
0.988217 -0.00477429 0.0 
1.002 -0.00701078 0.0 
1.001 -0.0026333 0.0 
1.00984 -0.000733015 0.0 
1.0012 -0.00298533 0.0 
0.999531 -0.0154413 0.0 
1.00246 0.00175233 0.0 
0.99648 0.000336616 0.0 
1.00077 0.00130147 0.0 
6.44701e-09 5.02226e-10 0.0 
0.998539 8.78154e-05 0.0 
8.1945e-08 3.83106e-08 0.0 
1.0002 -0.00117112 0.0 
0.992028 0.0049633 0.0 
1.00241 -0.00170145 0.0 
1.00258 -0.00169012 0.0 
1.00091 -0.00114898 0.0 
1.00218 -0.010583 0.0 
0 0 0.0 
0.998104 0.000416037 0.0 
0.99438 -0.000791185 0.0 
0.998727 0.00144425 0.0 
0.0903755 0.00134627 0.0 
0.0222216 0.00109621 0.0 
0 0 0.0 
1.00214 0.00137946 0.0 
0.998683 -0.00179681 0.0 
0.999884 -0.000495556 0.0 
1.00124 -0.00114527 0.0 
1.00359 -0.00218252 0.0 
1.00067 -0.00209085 0.0 
0.997857 2.35403e-05 0.0 
1.00057 -0.000890472 0.0 
0.999648 -0.00125353 0.0 
0.0518453 -0.00717686 0.0 
0.99855 0.000863606 0.0 
1.00597 -0.00219414 0.0 
1.01337 0.00480549 0.0 
1.00345 -0.00082369 0.0 
0.998978 -6.01894e-05 0.0 
1.00121 -0.0029087 0.0 
1.00212 -0.003596 0.0 
1.00138 -0.00259682 0.0 
1.00125 0.000946661 0.0 
0.998144 -0.00227638 0.0 
1.00057 -0.0060065 0.0 
1.0033 -0.00234618 0.0 
1.00207 -0.00148948 0.0 
1.00151 -0.000999411 0.0 
1.00071 -0.000930645 0.0 
0.985846 -0.00566912 0.0 
1.00007 -0.00770136 0.0 
1.00471 -0.000947727 0.0 
1.00046 -0.00781956 0.0 
1.0042 -0.00722539 0.0 
1.00235 0.00405662 0.0 
1.00505 0.0155932 0.0 
1.01775 0.000299458 0.0 
1.00181 -0.00468951 0.0 
0.48648 0.186743 0.0 
1.00441 0.00389572 0.0 
1.00043 -0.000796713 0.0 
0.999101 -0.00761826 0.0 
1.00202 -0.000791623 0.0 
1.00001 0.000495377 0.0 
1.00161 -0.00303319 0.0 
1.00148 -0.000575964 0.0 
1.0031 -0.00183185 0.0 
1.00222 0.00260102 0.0 
1.00297 -0.00151654 0.0 
2.60802e-08 -3.29403e-09 0.0 
0.998975 -0.00382565 0.0 
0.997848 -0.00126647 0.0 
1.00342 -0.00710472 0.0 
0.999775 -0.000403539 0.0 
1.00058 0.000148928 0.0 
1.00304 -0.00119447 0.0 
1.0053 0.000472264 0.0 
1.0019 -0.00324093 0.0 
1.00169 -0.00425008 0.0 
0.998343 -0.00152189 0.0 
0.999933 0.00112306 0.0 
1.00148 -0.00482634 0.0 
1.0049 0.000901586 0.0 
1.00046 -0.0018561 0.0 
1.00078 -0.00204174 0.0 
0.994746 -0.00166879 0.0 
1.00043 0.00601113 0.0 
1.00285 -0.00144808 0.0 
0 0 0.0 
1.00603 0.0068897 0.0 
0.99956 -0.00100538 0.0 
1.00139 -0.00320274 0.0 
4.96531e-09 -8.79871e-11 0.0 
1.00043 -0.00036283 0.0 
1.0002 -0.00220533 0.0 
0.996233 -0.00453174 0.0 
1.00106 -0.00219002 0.0 
0.99907 -0.00718599 0.0 
1.00128 -0.000722535 0.0 
1.00018 0.000585055 0.0 
0 0 0.0 
1.00251 -0.00201465 0.0 
1.00031 -0.00234212 0.0 
1.00104 -0.00148479 0.0 
1.00603 -0.00333801 0.0 
0.996135 -0.00587656 0.0 
0.999922 0.000235791 0.0 
1.00091 -0.000302689 0.0 
1.00144 -0.0033229 0.0 
1.00105 -0.00374232 0.0 
1.00746 -0.0332468 0.0 
0.994925 -0.000378234 0.0 
1.00111 -0.00235272 0.0 
1.0026 -7.95262e-05 0.0 
1.00119 -0.000108258 0.0 
0.926796 -0.00550185 0.0 
0 0 0.0 
1.0015 0.000738177 0.0 
0.999213 0.00187184 0.0 
0.989094 0.00279724 0.0 
1.00295 0.000348178 0.0 
1.00125 -0.00296652 0.0 
1.00189 -0.001682 0.0 
0.999686 0.000139252 0.0 
1.00246 -0.000109641 0.0 
0.999292 0.00387633 0.0 
1.00187 -0.0018014 0.0 
0.99978 -0.000426746 0.0 
1.00441 -0.00385052 0.0 
0.999572 -0.000320439 0.0 
1.00161 -0.000536454 0.0 
0.0140641 0.000825675 0.0 
1.01444 -0.00373023 0.0 
1.00874 -0.00464325 0.0 
1.01313 -0.00840166 0.0 
1.00183 -0.000255826 0.0 
1.00412 -0.00818799 0.0 
1.00184 -0.00233522 0.0 
0 0 0.0 
1.00107 -0.00119296 0.0 
0.732791 -0.136047 0.0 
1.04154 -0.0462993 0.0 
0.997447 0.00575149 0.0 
1.00002 -3.93578e-05 0.0 
0.997765 -0.00513617 0.0 
0.990223 0.000391165 0.0 
1.00084 0.00974173 0.0 
1.00259 -0.000526491 0.0 
0.326891 0.0333041 0.0 
1.00148 0.00402155 0.0 
1.00166 -0.00127672 0.0 
1.00181 -0.0017442 0.0 
1.00134 -0.0027913 0.0 
0 0 0.0 
0.999273 -0.000317979 0.0 
1.0011 -0.000690808 0.0 
0.999336 0.00590035 0.0 
0.999743 -0.00232672 0.0 
1.00134 -0.000685605 0.0 
1.00009 -0.00145701 0.0 
1.00248 -0.003513 0.0 
0.995491 -0.0130572 0.0 
0.999985 0.00187191 0.0 
0.99871 0.0031047 0.0 
0.99733 -0.000969117 0.0 
1.00099 -0.00052969 0.0 
1.00089 -0.00103684 0.0 
1.00154 0.0010637 0.0 
1.05039 -0.223275 0.0 
0.997252 -0.00665268 0.0 
0.998507 0.00570523 0.0 
1.00001 0.000338452 0.0 
1.00445 -0.00285765 0.0 
1.00192 0.00287578 0.0 
1.0019 -0.000411308 0.0 
0.999925 -0.000698333 0.0 
1.00394 0.0038665 0.0 
1.00421 -0.0268183 0.0 
1.00204 -0.00208801 0.0 
1.00135 -0.000953204 0.0 
0.998801 0.00116599 0.0 
0.991099 0.00127457 0.0 
1.00172 0.00199145 0.0 
1.00072 -0.000353365 0.0 
0.985815 -0.00782667 0.0 
1.0014 -0.000900683 0.0 
0.998963 -0.00369969 0.0 
1.00171 -0.000884484 0.0 
0.999692 -0.00167369 0.0 
1.00269 0.000336653 0.0 
1.00103 -0.00314125 0.0 
1.00058 -0.000978302 0.0 
1.00066 0.00053609 0.0 
1.00087 -0.000450428 0.0 
1.00044 -0.000997489 0.0 
0.999872 0.00162926 0.0 
1.00082 0.00233173 0.0 
1.00266 0.00125314 0.0 
1.00137 -0.000497271 0.0 
1.00108 -0.000772195 0.0 
0.998405 0.00171616 0.0 
1.00169 0.00165267 0.0 
1.00375 0.00233439 0.0 
0.999989 -0.000148978 0.0 
1.00107 -0.000597696 0.0 
0.99643 0.00165257 0.0 
0.999996 -2.49782e-05 0.0 
1.00005 -0.0012338 0.0 
1.00019 -0.000335475 0.0 
1.00003 -4.79499e-05 0.0 
1.00083 -0.00119928 0.0 
0.998315 7.20856e-05 0.0 
0 0 0.0 
1.00097 -0.00209697 0.0 
0.999306 0.00241061 0.0 
0.99959 -0.000412824 0.0 
0.998187 -0.00111701 0.0 
1.00226 -0.00148576 0.0 
1.0001 -0.000109779 0.0 
1.00206 -0.00196232 0.0 
1.00202 -0.00117934 0.0 
0 0 0.0 
1.00212 0.00324512 0.0 
1.0503 -0.0724505 0.0 
1.00164 -0.00127139 0.0 
1.00109 -0.000818109 0.0 
0.997995 -6.69807e-05 0.0 
1.00001 0.000146863 0.0 
1.00007 -0.0109013 0.0 
1.0019 -0.00359323 0.0 
1.00063 -0.000383551 0.0 
0 0 0.0 
1.00143 -0.00102012 0.0 
0.997408 -0.00184842 0.0 
1.00152 0.0012449 0.0 
0.997637 0.00278573 0.0 
1.00651 -0.00169371 0.0 
1.00109 -0.000431002 0.0 
0.999915 -0.00408859 0.0 
0.997554 0.0549036 0.0 
0.989373 -0.00165651 0.0 
1.00018 -0.0029433 0.0 
1.00152 -0.00306648 0.0 
1.00171 0.00507411 0.0 
1.00223 -0.00188607 0.0 
1.00423 0.00204041 0.0 
0.999429 -0.00426933 0.0 
0.999262 -0.000315992 0.0 
1.00181 -0.00165781 0.0 
1.00268 -0.000228752 0.0 
1.00095 -0.00238141 0.0 
1.00103 -0.00033969 0.0 
1.00052 -7.3414e-05 0.0 
0.999718 -0.000783677 0.0 
1.00069 0.000770148 0.0 
1.00181 0.0326793 0.0 
1.00142 0.000474576 0.0 
-2.3726e-09 2.57292e-11 0.0 
1.00047 0.0017821 0.0 
1.00062 -0.00196376 0.0 
1.00367 0.00566509 0.0 
1.00654 -0.00366656 0.0 
1.00006 -0.000489398 0.0 
1.00027 -0.00126657 0.0 
1.0004 -0.00313481 0.0 
0.999147 -0.00220255 0.0 
1.00396 0.000517819 0.0 
0.999597 -0.00055803 0.0 
0.994568 0.00325109 0.0 
0.999737 -0.0036185 0.0 
0.999469 0.00026717 0.0 
1.00136 -0.00322134 0.0 
0.974497 -0.00330211 0.0 
1.00084 -0.00280424 0.0 
0.999632 -0.00330218 0.0 
1.00163 -0.00105003 0.0 
1.00097 -0.000992368 0.0 
0.998957 -0.000707755 0.0 
1.00148 -0.00436649 0.0 
0.999982 0.00136502 0.0 
0.997901 0.000288837 0.0 
0.993795 -0.00280659 0.0 
0.180715 -0.0164478 0.0 
1.00283 -0.001016 0.0 
1.00137 -0.000166513 0.0 
0.997319 0.00141068 0.0 
0.997586 -0.00230823 0.0 
0.998724 -0.000161944 0.0 
1.00248 0.00160088 0.0 
1.00007 -0.000367623 0.0 
1.00015 -0.00295628 0.0 
0.99827 0.000160259 0.0 
0.0275479 -0.00363105 0.0 
1.00067 -5.32023e-05 0.0 