<VTKFile type="UnstructuredGrid" version="0.1" byte_order="LittleEndian">
  <UnstructuredGrid>
    <Piece NumberOfPoints="23679" NumberOfCells="47236">
      <Points>
        <DataArray type = "Float64" NumberOfComponents="3" format="ascii">
-5 -7 0.0 
15.5 -7 0.0 
15.5 7 0.0 
-5 7 0.0 
7.63511 2.91639 0.0 
1.87049 1.67084 0.0 
-0.605974 -0.287769 0.0 
2.37337 -3.10656 0.0 
0.929906 2.48659 0.0 
0.824948 -0.0289232 0.0 
0.579762 -2.6174 0.0 
2.75639 -0.320238 0.0 
0.600589 -0.0279367 0.0 
0.809974 0.0358912 0.0 
4.52511 -0.0925724 0.0 
0.692729 -0.023898 0.0 
2.14598 1.71184 0.0 
4.47114 -0.725108 0.0 
2.94972 0.812693 0.0 
-2.51884 -5.20772 0.0 
0.933054 -0.00978829 0.0 
-3.39004 -0.0550254 0.0 
0.209319 0.0741243 0.0 
-0.14562 -1.1416 0.0 
0.16355 -0.0415655 0.0 
4.37129 -0.146188 0.0 
0.125896 0.0617342 0.0 
2.89507 -0.00321849 0.0 
0.117818 -0.0547525 0.0 
0.74577 -0.0190427 0.0 
1.20907 -2.59566 0.0 
7.05945 1.36908 0.0 
1.18414 0.837326 0.0 
-0.664239 0.00933663 0.0 
0.988285 -0.635056 0.0 
0.79931 -0.0154644 0.0 
-0.169857 -0.752454 0.0 
-0.535193 0.781979 0.0 
4.50646 0.336854 0.0 
0.675201 -0.447934 0.0 
4.33956 3.92927 0.0 
7.20401 -0.547152 0.0 
5.06202 0.761268 0.0 
-1.83764 -0.830466 0.0 
2.97447 -2.59497 0.0 
1.77447 -4.2029 0.0 
0.203756 0.0741702 0.0 
2.3905 -0.208726 0.0 
-2.38226 0.0491773 0.0 
1.57579 -4.90006 0.0 
0.892623 0.876713 0.0 
0.619187 0.0692661 0.0 
1.81524 2.22933 0.0 
3.20393 -0.375619 0.0 
0.560088 -0.0307549 0.0 
-4.00064 -1.06423 0.0 
4.1637 1.41296 0.0 
2.03909 0.577378 0.0 
3.97155 -0.451817 0.0 
-1.0713 0.305678 0.0 
1.24518 -0.853569 0.0 
5.30713 0.379083 0.0 
0.993214 0.00283989 0.0 
0.513972 -3.72515 0.0 
4.25372 1.90694 0.0 
0.87556 0.025233 0.0 
0.401296 0.0780688 0.0 
0.44761 -0.0359067 0.0 
-3.06259 -0.640688 0.0 
0.58449 -3.29242 0.0 
4.47137 0.702541 0.0 
-0.523713 -0.272593 0.0 
-0.477755 -0.422453 0.0 
0.570246 -0.533547 0.0 
0.538433 -0.0310055 0.0 
5.2741 -1.01059 0.0 
2.21102 -1.39328 0.0 
1.30783 -0.274121 0.0 
4.18709 -1.48886 0.0 
-1.19726 -3.28581 0.0 
-0.0359698 -1.75399 0.0 
0.617039 -0.0263973 0.0 
5.83653 0.150199 0.0 
5.57946 0.224905 0.0 
0.377841 -0.038928 0.0 
1.38254 1.36675 0.0 
2.58372 -1.06479 0.0 
4.70454 -3.6075 0.0 
0.551438 0.113173 0.0 
0.532912 -0.0384617 0.0 
-0.392031 -0.729994 0.0 
4.38556 1.53498 0.0 
-1.34387 -2.96962 0.0 
4.73748 -0.295427 0.0 
5.13252 -2.84762 0.0 
5.34987 1.08334 0.0 
0.326684 0.0802051 0.0 
1.0681 0.191919 0.0 
0.292684 0.0800176 0.0 
-0.288073 -0.693253 0.0 
0.850052 0.029488 0.0 
7.72674 -2.22661 0.0 
5.73402 0.253504 0.0 
3.27298 3.73283 0.0 
2.31769 -0.889324 0.0 
3.24694 -2.57408 0.0 
-0.795775 -5.8192 0.0 
0.667923 -0.0361302 0.0 
0.835769 0.0314682 0.0 
4.69839 -1.50939 0.0 
4.91709 3.01814 0.0 
0.151849 -0.0409087 0.0 
3.55148 0.264681 0.0 
0.842117 -0.794382 0.0 
2.65591 1.43349 0.0 
0.932811 0.0144733 0.0 
-0.764917 -0.926758 0.0 
3.60734 -0.915315 0.0 
-0.605852 0.649115 0.0 
5.76621 -0.263827 0.0 
3.08877 -0.924843 0.0 
0.899825 -0.00795866 0.0 
6.80384 1.26814 0.0 
3.19847 -0.826277 0.0 
0.0166341 -0.0962489 0.0 
3.983 -1.51439 0.0 
5.81155 1.05052 0.0 
0.403773 -0.0376754 0.0 
4.06583 -0.737319 0.0 
3.85222 3.16404 0.0 
7.27994 -0.917065 0.0 
7.01199 -1.44503 0.0 
5.44634 0.7472 0.0 
5.43495 -0.0201864 0.0 
1.51213 -0.834065 0.0 
1.97076 0.806002 0.0 
0.634487 0.0595385 0.0 
-0.572414 -4.29099 0.0 
1.8826 -0.733417 0.0 
0.759381 -0.180619 0.0 
0.40132 0.0778474 0.0 
0.23454 -0.0430222 0.0 
-0.802406 2.95957 0.0 
0.691963 0.0549995 0.0 
5.47277 -0.740356 0.0 
14.1487 4.94071 0.0 
0.0736498 -1.30758 0.0 
-3.24273 0.882011 0.0 
1.37104 -0.876055 0.0 
-0.483647 -0.194829 0.0 
2.83565 1.06937 0.0 
5.52957 -1.21731 0.0 
0.947149 -0.00912481 0.0 
-0.408161 -0.611461 0.0 
-0.824132 1.91234 0.0 
-0.28194 0.734853 0.0 
-2.58987 -0.112571 0.0 
5.39673 0.0810302 0.0 
0.347037 -1.34491 0.0 
1.28521 2.08402 0.0 
0.220369 -0.0424097 0.0 
-0.490215 0.575937 0.0 
1.64934 -1.3049 0.0 
0.153085 0.0664047 0.0 
-0.251695 -2.55503 0.0 
0.826156 -0.0139773 0.0 
3.35673 0.186652 0.0 
4.62807 -2.39408 0.0 
-1.05781 -1.39579 0.0 
-2.54531 4.21509 0.0 
1.60336 1.51116 0.0 
0.713093 0.0498095 0.0 
0.643534 0.0642145 0.0 
-3.64101 4.81173 0.0 
-1.26922 -3.94313 0.0 
-0.342655 -1.12768 0.0 
3.30326 0.952175 0.0 
5.64264 0.331249 0.0 
1.34559 -0.214642 0.0 
1.60527 0.321358 0.0 
0.328683 -0.0401423 0.0 
3.81728 0.37784 0.0 
4.37562 0.758715 0.0 
5.5831 -1.82905 0.0 
-1.49688 0.101849 0.0 
-1.70027 -0.343758 0.0 
0.937041 0.0136815 0.0 
5.60623 1.42522 0.0 
-1.23169 -0.42816 0.0 
1.69627 2.52442 0.0 
1.36245 -1.5082 0.0 
1.25107 -3.80948 0.0 
2.74679 0.528168 0.0 
5.36614 -1.19177 0.0 
0.605019 1.16677 0.0 
-4.58423 -1.62108 0.0 
-2.02651 2.34708 0.0 
3.99339 3.63024 0.0 
-1.36142 -0.0750085 0.0 
5.19766 -0.482867 0.0 
-3.85513 -1.43107 0.0 
0.966422 0.00919783 0.0 
0.247834 0.0870881 0.0 
-0.465649 -0.817954 0.0 
4.29025 4.26714 0.0 
1.18312 -0.431176 0.0 
9.21986 0.0258833 0.0 
5.39136 -0.625475 0.0 
5.56604 0.611257 0.0 
1.96388 -1.61685 0.0 
0.196106 -0.0423443 0.0 
2.93186 0.364486 0.0 
5.88518 0.822328 0.0 
0.824138 -0.0139123 0.0 
-0.47228 -0.526413 0.0 
0.477118 -0.0338206 0.0 
-4.64673 -2.62107 0.0 
4.10712 -0.887195 0.0 
0.710355 0.0501717 0.0 
1.64936 -0.864917 0.0 
-1.61346 -3.22424 0.0 
0.0092848 0.0284272 0.0 
7.26993 2.53793 0.0 
1.1048 2.83071 0.0 
10.1588 1.30502 0.0 
-0.263385 -0.26391 0.0 
13.7005 7 0.0 
0.52333 0.0703707 0.0 
4.58595 -1.29531 0.0 
5.62067 -0.188463 0.0 
0.799738 -0.0147854 0.0 
11.9625 -2.20661 0.0 
5.40435 0.619553 0.0 
3.28687 -1.45096 0.0 
0.458966 0.0872446 0.0 
5.51568 -0.596029 0.0 
-1.63011 3.37507 0.0 
0.293181 -0.0414659 0.0 
0.865321 -2.71027 0.0 
0.786038 -0.0158333 0.0 
0.0736186 0.0492692 0.0 
4.13993 -2.76136 0.0 
0.881421 -0.0921271 0.0 
0.266317 -3.38104 0.0 
4.88629 -0.852705 0.0 
0.437008 0.076424 0.0 
3.8816 4.12562 0.0 
7.92184 -0.0908268 0.0 
0.176354 -0.0480078 0.0 
-0.662142 0.143724 0.0 
6.26015 0.128606 0.0 
0.915518 -0.00670685 0.0 
3.62021 -1.04763 0.0 
1.34876 0.720027 0.0 
0.982357 -3.49725 0.0 
0.663709 0.0566737 0.0 
5.3066 -0.705713 0.0 
-0.944514 -3.61431 0.0 
1.79294 -0.661223 0.0 
-0.342215 2.27409 0.0 
5.88842 -0.367403 0.0 
0.211839 -0.0420107 0.0 
0.654413 -0.0369233 0.0 
3.68564 6.54289 0.0 
5.00064 1.8515 0.0 
0.69027 0.0546811 0.0 
1.12166 0.441142 0.0 
7.31715 -3.60167 0.0 
2.79958 1.64327 0.0 
0.433465 0.0764782 0.0 
0.584196 0.0652607 0.0 
0.0636322 -0.695974 0.0 
-1.81416 1.63551 0.0 
0.74075 0.0465749 0.0 
2.69342 -1.49048 0.0 
4.86008 -1.00044 0.0 
0.822907 -0.0142337 0.0 
-0.164664 0.307939 0.0 
4.48127 5.51069 0.0 
4.4895 -4.79993 0.0 
5.37438 1.55243 0.0 
0.123991 1.28664 0.0 
6.41782 -0.499678 0.0 
3.16721 -0.70129 0.0 
1.99155 -0.729552 0.0 
4.69954 4.16905 0.0 
-1.91695 -2.36563 0.0 
8.09216 1.16816 0.0 
0.242046 0.0802658 0.0 
2.34355 2.47663 0.0 
2.72841 -0.285972 0.0 
13.5916 6.05949 0.0 
1.64671 4.40597 0.0 
3.03209 1.84093 0.0 
-0.498111 0.662759 0.0 
0.765551 -2.10462 0.0 
5.25655 0.61914 0.0 
6.04759 -2.75505 0.0 
1.12471 -0.237361 0.0 
6.40695 -2.14103 0.0 
4.37139 0.883681 0.0 
0.240004 -0.042139 0.0 
-4.55867 -4.42627 0.0 
-1.09286 3.96435 0.0 
-1.07351 0.572111 0.0 
3.73338 -0.828021 0.0 
-0.766762 -0.403459 0.0 
0.402752 -1.68281 0.0 
0.925255 0.0164317 0.0 
0.88786 -0.943606 0.0 
0.505244 -0.025873 0.0 
-0.299243 0.0389379 0.0 
3.36416 0.723434 0.0 
0.636773 1.7916 0.0 
0.0435288 1.09333 0.0 
0.74756 2.65039 0.0 
5.12608 -1.02106 0.0 
3.05399 0.794214 0.0 
3.3685 -2.29577 0.0 
9.40833 4.18552 0.0 
0.726496 1.10014 0.0 
-1.43587 -0.265452 0.0 
1.53809 -0.965095 0.0 
3.65342 -1.2467 0.0 
3.58193 2.86195 0.0 
1.58453 1.05649 0.0 
0.69113 -0.0216886 0.0 
4.67304 -0.737386 0.0 
2.403 -2.53676 0.0 
-0.883615 -1.03632 0.0 
0.570985 0.067201 0.0 
4.5489 1.01634 0.0 
1.30188 0.95494 0.0 
4.78484 -2.98767 0.0 
0.647276 3.74647 0.0 
1.64058 -1.98991 0.0 
5.60464 1.66025 0.0 
-2.46641 -2.76999 0.0 
0.0236771 0.0292808 0.0 
1.83737 -2.85625 0.0 
0.712397 -0.0207427 0.0 
-0.929233 -3.15638 0.0 
5.62429 -0.0217768 0.0 
0.696715 -0.0236006 0.0 
4.31467 0.462465 0.0 
1.90518 -1.00498 0.0 
3.8123 -0.317197 0.0 
-1.40698 0.43063 0.0 
8.12686 0.163945 0.0 
0.0912505 -0.0517404 0.0 
0.360402 0.0788181 0.0 
0.766222 5.08386 0.0 
0.543306 0.227627 0.0 
0.768677 -0.887089 0.0 
13.8069 6.49329 0.0 
3.14545 -0.527242 0.0 
3.00213 0.685174 0.0 
-3.26851 -1.17579 0.0 
0.326091 -0.0407782 0.0 
-0.350969 -1.28117 0.0 
-1.34372 -4.38367 0.0 
-1.47047 0.274883 0.0 
8.69891 -0.824176 0.0 
0.572752 0.0666296 0.0 
3.02391 1.56815 0.0 
0.546825 -0.0304958 0.0 
7.53034 -2.92118 0.0 
0.862614 -3.9233 0.0 
7.46433 -0.686568 0.0 
0.435695 0.0763326 0.0 
-0.291216 -0.600905 0.0 
0.958024 -0.00418663 0.0 
0.996359 0.00209859 0.0 
-3.04054 -1.35802 0.0 
7.86523 -1.29492 0.0 
0.824153 0.0339519 0.0 
-2.0843 -1.39076 0.0 
2.0242 4.23744 0.0 
6.10554 -1.09258 0.0 
0.070474 0.0518922 0.0 
0.253412 0.0852338 0.0 
4.90662 -3.37133 0.0 
5.3389 -1.37998 0.0 
8.18441 -5.4394 0.0 
4.74018 -1.11041 0.0 
-1.45792 -1.69797 0.0 
-0.658439 1.28669 0.0 
-1.47154 1.02941 0.0 
0.548603 -1.30682 0.0 
-4.28372 4.01846 0.0 
0.597388 -0.031556 0.0 
0.976283 3.91053 0.0 
-1.97604 3.44687 0.0 
-0.823498 -1.2495 0.0 
-0.676338 -0.322971 0.0 
0.0194499 -2.00073 0.0 
6.06625 2.2173 0.0 
4.77636 1.32682 0.0 
3.5286 -1.40716 0.0 
2.2348 6.10147 0.0 
4.3501 1.14584 0.0 
-0.374853 0.997283 0.0 
0.331239 -0.0398749 0.0 
2.92416 0.944765 0.0 
-1.08711 -0.79613 0.0 
-2.10643 0.811211 0.0 
10.0853 -2.20029 0.0 
9.19723 -1.4685 0.0 
-3.63493 -2.23583 0.0 
9.13289 -4.40814 0.0 
0.13646 -0.0401233 0.0 
3.73879 -1.49966 0.0 
1.16246 1.31001 0.0 
1.76621 -0.985528 0.0 
0.279409 0.0783782 0.0 
4.49882 0.813878 0.0 
0.0773295 0.0501322 0.0 
-1.7711 -2.7915 0.0 
2.21785 -2.83793 0.0 
1.9729 0.35934 0.0 
6.07917 0.172121 0.0 
-1.06801 -1.19434 0.0 
-0.742511 -0.787541 0.0 
4.55801 -0.996424 0.0 
10.0032 -3.21238 0.0 
4.23955 3.27 0.0 
4.4588 0.213546 0.0 
-3.41169 -1.50587 0.0 
0.374392 0.944982 0.0 
[...]
<PointData>
  <DataArray type = "Float64" Name="VitesseP1" NumberOfComponents="3" format="ascii">
1 0 0.0 
1.00297 0 0.0 
0.997848 0 0.0 
1 0 0.0 
1.00003 -0.000980197 0.0 
1.00628 -0.00602131 0.0 
0.983527 -0.00243642 0.0 
1.00112 -0.000854602 0.0 
1.00682 -0.000995967 0.0 
0.624831 0.0384428 0.0 
1.00098 -0.00113732 0.0 
0.999608 -0.00344419 0.0 
0.0115454 0.000357493 0.0 
0 0 0.0 
0.94536 -0.00154427 0.0 
0.0881073 0.00549042 0.0 
1.00501 -0.00555334 0.0 
1.00161 -0.00200118 0.0 
1.00167 -0.00548284 0.0 
1.00009 -0.000177165 0.0 
0.150011 0.0100931 0.0 
0.999511 0.00133799 0.0 
0.0776937 0.00947276 0.0 
1.00079 -0.00586255 0.0 
1.25679e-08 -4.78252e-10 0.0 
0.998505 -0.00235718 0.0 
3.12995e-08 6.97052e-09 0.0 
0.844917 -0.00388984 0.0 
1.13922 -0.112872 0.0 
0.0182854 0.00170916 0.0 
1.00107 -0.000894294 0.0 
1.00156 -0.00126143 0.0 
1.01461 -0.0170617 0.0 
0.982484 0.00841278 0.0 
1.00258 0.00829827 0.0 
0.0132537 0.000626653 0.0 
0.999214 -0.0118716 0.0 
1.00319 0.0187558 0.0 
1.00144 -0.00277577 0.0 
1.01652 0.0122522 0.0 
1.00071 -0.00142417 0.0 
1.00482 0.000150449 0.0 
1.00164 -0.00238554 0.0 
0.997252 0.000750413 0.0 
1.00121 -0.00105204 0.0 
1.00099 -0.000626784 0.0 
0.174166 0.0175531 0.0 
0.998243 -0.00404978 0.0 
0.998383 0.00269438 0.0 
1.00091 -0.000469552 0.0 
1.02356 -0.0132753 0.0 
0.411292 -0.0406061 0.0 
1.00544 -0.00364885 0.0 
1.00063 -0.00303156 0.0 
0.0309938 0.00188911 0.0 
0.999822 0.00042917 0.0 
1.00153 -0.00307167 0.0 
1.00106 -0.0106235 0.0 
1.00139 -0.00244661 0.0 
0.993606 0.00928442 0.0 
1.00024 0.00338598 0.0 
1.0012 -0.00176753 0.0 
-3.0441e-09 -6.38664e-10 0.0 
1.00074 -0.000779694 0.0 
1.00159 -0.00274745 0.0 
-0.000844704 0.000158838 0.0 
3.21742e-08 -4.24953e-10 0.0 
0 0 0.0 
0.999184 0.00109544 0.0 
1.0008 -0.000896526 0.0 
1.00162 -0.00286936 0.0 
0.980843 -0.00437892 0.0 
0.986083 -0.00866888 0.0 
1.01716 0.00502713 0.0 
0 0 0.0 
1.00198 -0.00158514 0.0 
1 -0.00099118 0.0 
0.987457 0.00641495 0.0 
1.00153 -0.00165224 0.0 
1.00006 -0.0007371 0.0 
1.00095 -0.00266501 0.0 
0 0 0.0 
0.982911 -0.00173993 0.0 
1.01371 -0.000416753 0.0 
3.42586e-08 1.57071e-09 0.0 
1.00992 -0.00803484 0.0 
0.99987 -0.00178718 0.0 
1.00175 -0.000795837 0.0 
1.13231 -0.0689808 0.0 
0.388786 0.0202848 0.0 
0.994739 -0.0093857 0.0 
1.00154 -0.00283081 0.0 
0.999861 -0.000786405 0.0 
1.00171 -0.00205596 0.0 
1.00196 -0.000994962 0.0 
1.00142 -0.00222823 0.0 
0.116058 0.000464619 0.0 
0.996837 -0.0611615 0.0 
0.148775 0.00371023 0.0 
0.995488 -0.0117997 0.0 
-1.05492e-09 1.85018e-11 0.0 
1.00275 -0.000898766 0.0 
1.00684 -0.00268075 0.0 
1.00156 -0.00166422 0.0 
0.999172 -0.0017025 0.0 
1.00129 -0.00110587 0.0 
1.00036 -0.000210319 0.0 
0.595484 0.0345217 0.0 
0 0 0.0 
1.00179 -0.0015404 0.0 
1.00082 -0.00177495 0.0 
0 0 0.0 
1.00101 -0.0038941 0.0 
1.00549 0.00451623 0.0 
1.003 -0.00550035 0.0 
0 0 0.0 
0.995329 -0.00378279 0.0 
1.00107 -0.00219093 0.0 
0.999144 0.0192018 0.0 
1.00525 -0.00431381 0.0 
1.00049 -0.00222983 0.0 
0 0 0.0 
1.00208 -0.00164725 0.0 
1.00058 -0.00236175 0.0 
0.994144 -0.169868 0.0 
1.00142 -0.00166518 0.0 
1.00087 -0.00223776 0.0 
0 0 0.0 
1.00136 -0.00217893 0.0 
1.00147 -0.00205379 0.0 
1.00394 -0.000594364 0.0 
1.00239 -0.00141904 0.0 
1.00137 -0.00226744 0.0 
0.906101 -0.00165356 0.0 
0.998416 0.00173239 0.0 
1.00318 -0.0105804 0.0 
0 0 0.0 
1.00039 -0.00056072 0.0 
0.997577 -0.00063629 0.0 
1.0163 0.0358423 0.0 
0 0 0.0 
0.047842 0.000486308 0.0 
1.00355 0.00263304 0.0 
0.0614492 -0.00761089 0.0 
1.00211 -0.00174331 0.0 
0.998278 -0.000225243 0.0 
1.00216 -0.00426005 0.0 
0.999776 0.00198378 0.0 
0.999364 0.00246986 0.0 
0.976317 -0.00283513 0.0 
1.00226 -0.00564352 0.0 
1.00227 -0.00124645 0.0 
0.161692 0.0107133 0.0 
0.991819 -0.0103414 0.0 
1.00489 0.00589437 0.0 
1.009 0.0248702 0.0 
0.998651 0.00216966 0.0 
0.959467 -0.00697771 0.0 
1.00304 -0.00263828 0.0 
1.00772 -0.00309728 0.0 
7.98559e-09 -1.79003e-10 0.0 
0.998764 0.0237556 0.0 
1.00003 9.46496e-05 0.0 
0 0 0.0 
1.00043 -0.00142776 0.0 
0.0252792 0.00192525 0.0 
1.00014 -0.00416098 0.0 
1.0018 -0.00120459 0.0 
0.997779 -0.00191974 0.0 
1.00071 0.00107373 0.0 
1.00772 -0.00697441 0.0 
0 0 0.0 
0.253038 -0.0273682 0.0 
1.00019 0.000481935 0.0 
1.00017 -0.000539278 0.0 
0.999071 -0.00581328 0.0 
1.00181 -0.00454945 0.0 
0.999735 0.000321041 0.0 
0.985268 0.00400555 0.0 
0.996747 -0.017812 0.0 
0 0 0.0 
1.00121 -0.00355836 0.0 
1.00161 -0.00296749 0.0 
1.00205 -0.00114004 0.0 
0.995608 0.00506654 0.0 
0.996205 0.00237868 0.0 
0 0 0.0 
1.00103 -0.00203138 0.0 
0.993694 0.00144486 0.0 
1.00524 -0.00272953 0.0 
1.00103 1.16934e-05 0.0 
1.00092 -0.000717362 0.0 
1.0009 -0.00614868 0.0 
1.00208 -0.00170361 0.0 
1.02138 -0.00153859 0.0 
0.999981 0.000103338 0.0 
1.00144 0.00329457 0.0 
1.00106 -0.00167808 0.0 
0.99418 0.00422388 0.0 
1.00197 -0.00155685 0.0 
0.99979 0.000331026 0.0 
-0.0126065 0.00255712 0.0 
1.09454 0.0825311 0.0 
0.995496 -0.00750672 0.0 
1.00063 -0.00123678 0.0 
0.994782 0.0100296 0.0 
0.974183 -0.000133501 0.0 
1.00272 -0.00226868 0.0 
1.00245 -0.00193423 0.0 
1.00047 -0.000686293 0.0 
2.00523e-08 -9.77071e-10 0.0 
1.00056 -0.00536809 0.0 
1.0025 -0.00149525 0.0 
0.01696 0.00111128 0.0 
0.989166 -0.00903956 0.0 
0 0 0.0 
0.999996 1.6334e-05 0.0 
1.00146 -0.00205304 0.0 
0 0 0.0 
0.998399 0.000773397 0.0 
0.999929 -0.000620726 0.0 
0.690647 0.504818 0.0 
1.00027 -0.00111746 0.0 
1.00545 -0.00108057 0.0 
1.00299 -0.000122245 0.0 
0.973142 -0.0215278 0.0 
0.998013 0 0.0 
0 0 0.0 
1.00171 -0.00166052 0.0 
0.993744 -0.000778136 0.0 
0 0 0.0 
1.00346 -0.000639803 0.0 
1.00147 -0.00195006 0.0 
1.0009 -0.00171249 0.0 
0.857933 -0.0387752 0.0 
1.00158 -0.0010856 0.0 
1.00182 0.00202146 0.0 
1.79307e-08 8.22264e-10 0.0 
1.00102 -0.000993363 0.0 
0 0 0.0 
6.97911e-08 2.11059e-08 0.0 
1.00163 -0.00108376 0.0 
1.00069 0.0467234 0.0 
1.00068 -0.000901499 0.0 
1.00188 -0.00177377 0.0 
0 0 0.0 
1.00093 -0.00135984 0.0 
0.971096 -0.00036871 0.0 
0.696293 -0.0260705 0.0 
0.98442 0.0132019 0.0 
0.972971 -0.00119748 0.0 
0 0 0.0 
1.00106 -0.0020662 0.0 
1.00955 -0.0189831 0.0 
1.00088 -0.00080283 0.0 
0.00476079 -0.000575202 0.0 
1.00158 -0.00153061 0.0 
1.00022 -0.000708926 0.0 
0.996785 -0.000311758 0.0 
1.00631 0.00380437 0.0 
1.01177 -0.00555087 0.0 
0 0 0.0 
0.59999 0.0344388 0.0 
1.00037 -0.000175268 0.0 
1.00131 -0.00223054 0.0 
0.042606 -0.00522332 0.0 
1.01194 -0.0353892 0.0 
1.00233 -0.000623409 0.0 
1.00311 -0.00476877 0.0 
0 0 0.0 
8.10083e-09 -5.32033e-10 0.0 
1.00576 -0.0133991 0.0 
1.0013 0.00476853 0.0 
0.00309001 -0.000414625 0.0 
1.00048 -0.00143187 0.0 
1.00188 -0.00175246 0.0 
0.0268645 0.00160457 0.0 
0.989891 0.0600964 0.0 
1.00019 -0.000608489 0.0 
1.00159 -0.00049757 0.0 
1.00136 -0.00208712 0.0 
1.01599 0.00759905 0.0 
1.0112 -0.00511512 0.0 
1.00038 -0.00254696 0.0 
0.99778 -0.0011345 0.0 
1.00044 -0.00123086 0.0 
0.999432 -0.00051236 0.0 
1.001 -0.00149844 0.0 
0.553647 0.0405257 0.0 
1.00376 -0.00326641 0.0 
0.999311 -0.00354659 0.0 
0.998095 -9.76817e-05 0.0 
1.00219 -0.000657832 0.0 
1.00283 -0.00409497 0.0 
1.00077 0.0217156 0.0 
1.00134 -0.00112283 0.0 
1.00122 -0.00248069 0.0 
1.00224 -0.000917704 0.0 
0.986246 0.0173383 0.0 
1.00245 -0.000950474 0.0 
1.00162 -0.00297806 0.0 
0 0 0.0 
1 -2.83139e-05 0.0 
1.00198 0.0013535 0.0 
0.996798 0.010704 0.0 
1.00116 -0.00223555 0.0 
0.989047 -0.00151672 0.0 
1.002 -0.00193749 0.0 
-2.70138e-08 4.28256e-09 0.0 
1.00414 0.00264507 0.0 
0 0 0.0 
0.952677 0.0176776 0.0 
1.00152 -0.00444469 0.0 
1.01177 -0.000281976 0.0 
1.01832 0.0122934 0.0 
1.00634 -0.000270675 0.0 
1.00182 -0.0016115 0.0 
1.00161 -0.00519394 0.0 
1.00125 -0.00121846 0.0 
0.999064 -0.000501197 0.0 
1.02159 -0.00496944 0.0 
0.994904 0.00278135 0.0 
0.999118 0.00118408 0.0 
1.00111 -0.00188898 0.0 
1.00181 -0.00242097 0.0 
1.0079 -0.0113071 0.0 
0 0 0.0 
1.00171 -0.00190449 0.0 
1.00104 -0.000949608 0.0 
0.99626 -0.00292953 0.0 
0.0282447 -0.00220137 0.0 
1.00156 -0.0027835 0.0 
1.01217 -0.0140561 0.0 
1.00183 -0.000970923 0.0 
1.00336 6.84837e-05 0.0 
1.00088 -0.00064555 0.0 
1.00126 -0.0018257 0.0 
0.999706 -0.000275305 0.0 
5.75987e-08 2.91069e-08 0.0 
1.00107 -0.000844382 0.0 
2.51667e-08 1.90435e-09 0.0 
1.00012 -0.000880639 0.0 
0.918536 0.000279075 0.0 
0.0853703 0.00561536 0.0 
1.00147 -0.00298815 0.0 
0.998965 -0.00042637 0.0 
1.00126 -0.00265695 0.0 
0.996547 0.00706387 0.0 
0.975207 -0.00150077 0.0 
1.14123 -0.155103 0.0 
1.22502e-08 5.54977e-10 0.0 
1.00172 -3.83749e-05 0.0 
1.1075 -0.0388829 0.0 
1.00597 0.00246568 0.0 
0.998045 -5.15144e-05 0.0 
1.00032 -0.00282006 0.0 
1.00146 -0.00534161 0.0 
0.999462 0.000588262 0.0 
0.0125054 0.000617164 0.0 
0.999297 -0.00460683 0.0 
1.00021 -0.000435467 0.0 
0.996157 0.00600283 0.0 
1.00932 -0.00149821 0.0 
0.00859138 -0.000989674 0.0 
1.0026 -0.00453595 0.0 
0 0 0.0 
1.00248 -0.000674406 0.0 
1.00081 -0.000703974 0.0 
1.0065 -0.00244146 0.0 
0 0 0.0 
0.993519 -0.0137591 0.0 
0 0 0.0 
0 0 0.0 
0.999329 0.00048616 0.0 
1.00206 -0.0011052 0.0 
0.000583353 -0.000102756 0.0 
0.99848 8.30834e-05 0.0 
1.00213 -0.000963267 0.0 
1.00193 -0.00120908 0.0 
0.797496 0.251802 0.0 
0.959786 0.066974 0.0 
1.00182 -0.00085026 0.0 
1.00208 -0.0014721 0.0 
1.00227 -0.000243477 0.0 
1.00178 -0.0016792 0.0 
0.998558 -0.00100669 0.0 
1.00548 0.0106701 0.0 
0.999918 0.00712463 0.0 
1.00343 -0.0014974 0.0 
1.00004 0.000393894 0.0 
0.188057 0.0108573 0.0 
1.00305 -0.000297352 0.0 
1.00142 0.00187982 0.0 
0.997381 -0.0029116 0.0 
0.98612 -0.00176033 0.0 
1.00083 -0.00205609 0.0 
1.00072 -0.00157597 0.0 
1.00136 -0.00257 0.0 
1.00107 -0.00176429 0.0 
1.00098 -0.000246002 0.0 
1.0015 -0.00297029 0.0 
1.00876 0.0163825 0.0 
0 0 0.0 
1.00198 -0.00548968 0.0 
0.994752 -0.00122538 0.0 
0.999196 0.00443765 0.0 
1.00262 -0.000416382 0.0 
1.0004 -0.000894872 0.0 
0.999823 8.33162e-05 0.0 
1.00257 -0.000383668 0.0 
0 0 0.0 
1.00126 -0.00169964 0.0 
1.0127 -0.00785156 0.0 
0.998877 7.97609e-05 0.0 
0 0 0.0 
1.00163 -0.00285198 0.0 
0 0 0.0 
0.999698 -0.000600647 0.0 
1.0011 -0.000873031 0.0 
0.998679 -0.0111722 0.0 
0.979343 -0.00684981 0.0 
0.996955 -0.00194352 0.0 
0.994009 -0.00410119 0.0 
1.00173 -0.00182023 0.0 
1.00271 -0.000397111 0.0 
1.00112 -0.0018608 0.0 
1.00096 -0.00278736 0.0 
0.999603 0.000364782 0.0 
1.02782 0.0056424 0.0 
0 0 0.0 
1.00366 -0.000342812 0.0 
1.02224 0.0159725 0.0 
0.985212 0.000923154 0.0 
0.998562 0.0134038 0.0 
1.00015 -0.00125344 0.0 
0.0114648 -0.00167117 0.0 
1.00156 -0.00171868 0.0 
1.00809 -0.0086847 0.0 
1.00099 0.00168241 0.0 
0.995678 -0.000479778 0.0 
4.31319e-08 8.27245e-10 0.0 
1.00296 -0.000244694 0.0 
1.00156 -0.00263246 0.0 
0 0 0.0 
1.00013 -0.00179671 0.0 
1.00285 0.0063201 0.0 
2.61736e-07 -9.20885e-09 0.0 
1.0002 -0.00233739 0.0 
1.00233 -0.00283737 0.0 
1.00049 -0.00146948 0.0 
0.0183406 0.000492276 0.0 
1.00793 0.0015324 0.0 
1.00211 -0.000263446 0.0 
1.00259 0.00331784 0.0 
1.01458 0.00161932 0.0 
1.003 -0.000154398 0.0 
1.00027 -0.00105824 0.0 
1.00248 -0.0002173 0.0 
1.00024 0.00404543 0.0 
1.00121 -0.00209029 0.0 
0.108158 0.0203375 0.0 
1.00099 -0.00106895 0.0 
0.283299 0.0217379 0.0 
1.00162 -0.000857611 0.0 
1.00014 0.00118989 0.0 
1.00017 0.00279941 0.0 
1.00127 -0.000450757 0.0 
1.00257 -0.000654178 0.0 
1.00005 0.00192821 0.0 
0.99719 0.00462503 0.0 
1.00192 -0.000238335 0.0 
1.02506 -0.00775815 0.0 
1.0001 -0.000785164 0.0 
1.00712 -6.70634e-05 0.0 
0 0 0.0 
1.00126 -0.00221312 0.0 
1.00148 -0.00422727 0.0 
1.00006 0.000415524 0.0 
1.00555 0.0220491 0.0 
1.00032 -0.00593226 0.0 
0.998975 -0.000304629 0.0 
1.00208 -0.000765404 0.0 
0.947811 -0.000162205 0.0 
0.963249 0.00198506 0.0 
8.79906e-09 1.80095e-10 0.0 
1.00284 0.00218649 0.0 
1.00153 -0.00261398 0.0 
1.0031 -0.00166385 0.0 
1.00422 -0.000873479 0.0 
0.995911 0.00377946 0.0 
0 0 0.0 
0.996804 -0.000475206 0.0 
0.999896 0.000499789 0.0 
1.002 -0.00281764 0.0 
0 0 0.0 
0.999978 6.92542e-05 0.0 
1.00059 -0.000138617 0.0 
1.00201 -0.000911352 0.0 
0.999037 -0.000889152 0.0 
1.00119 -0.000737804 0.0 
1.00644 -0.00470438 0.0 
0.930854 0.00281232 0.0 
0.999963 -0.00286908 0.0 
1.0025 -0.000435751 0.0 
1.00194 -0.00325151 0.0 
0.998045 -7.81199e-05 0.0 
1.00105 -0.00085081 0.0 
1.00144 -0.00156588 0.0 
1.00001 0.00447486 0.0 
1.00232 -0.00404869 0.0 
0.998338 -0.000163309 0.0 
1.00167 -0.000968946 0.0 
1.0015 -0.00195133 0.0 
1.00009 0.000345883 0.0 
0.0908852 -0.00563163 0.0 
1.03509 -0.0446432 0.0 
1.00201 -0.000309036 0.0 
0.999892 0.0016983 0.0 
0.144589 -0.00823494 0.0 
1.00143 -0.00252462 0.0 
0.566001 -0.0550132 0.0 
1.00275 -0.00320884 0.0 
1.00004 -0.000147618 0.0 
0.997794 0.00332132 0.0 
1.00068 -0.00108897 0.0 
1.00255 -0.00410239 0.0 
0.00961028 0.000378764 0.0 
1.00062 -0.000277319 0.0 
1.00039 -0.00175053 0.0 
1.0023 -0.00088234 0.0 
0.999963 -0.00211286 0.0 
1.00207 -0.00691513 0.0 
1.00137 -0.00220057 0.0 
1.00828 -0.00123651 0.0 
1.00154 -0.00240269 0.0 
0.999588 -0.0153729 0.0 
1.00247 0.00175897 0.0 
0.996472 0.000356543 0.0 
1.00071 0.00132943 0.0 
6.48155e-09 5.04502e-10 0.0 
0.997991 -5.04782e-05 0.0 
8.19418e-08 3.831e-08 0.0 
1.00027 -0.00121721 0.0 
0.992025 0.00499918 0.0 
1.00224 -0.00110858 0.0 
1.00234 -0.00116988 0.0 
1.00084 -0.00114871 0.0 
1.00224 -0.0105052 0.0 
0 0 0.0 
0.998529 -0.000249328 0.0 
0.994301 -0.000736957 0.0 
0.998512 -2.23588e-05 0.0 
0.0904232 0.001347 0.0 
0.0223072 0.00109998 0.0 
0 0 0.0 
1.00337 -0.000414521 0.0 
0.999806 -0.000863731 0.0 
0.999881 -0.000492636 0.0 
1.00127 -0.00112953 0.0 
1.00363 -0.00214684 0.0 
1.00053 -0.00204977 0.0 
0.99785 3.71307e-05 0.0 
1.00056 -0.000888832 0.0 
0.999856 -0.00101633 0.0 
0.0522926 -0.00725188 0.0 
0.999255 -0.000209022 0.0 
1.00728 -0.000696285 0.0 
1.0134 0.00483491 0.0 
1.00265 -0.0005727 0.0 
0.998974 -5.20721e-05 0.0 
1.00143 -0.0027182 0.0 
1.00221 -0.00351875 0.0 
1.00148 -0.00257338 0.0 
1.00364 -0.000456281 0.0 
1.0002 -0.000813439 0.0 
1.00065 -0.00588288 0.0 
1.003 -0.00164285 0.0 
1.00197 -0.0010774 0.0 
1.00147 -0.000983306 0.0 
1.00074 -0.000945154 0.0 
0.985823 -0.00561454 0.0 
1.00014 -0.00759902 0.0 
1.00466 -0.000923158 0.0 
1.00053 -0.00771923 0.0 
1.00426 -0.00715538 0.0 
1.00236 0.00406749 0.0 
1.00507 0.0156291 0.0 
1.01779 0.000334217 0.0 
1.0019 -0.00457793 0.0 
0.486508 0.186755 0.0 
1.00442 0.0039094 0.0 
1.00042 -0.00079551 0.0 
0.999167 -0.00751467 0.0 
1.0019 -0.000522662 0.0 
1.00001 0.000496268 0.0 
1.00199 -0.00228979 0.0 
1.00148 -0.000524317 0.0 
1.00164 -0.00109782 0.0 
1.00222 0.00260826 0.0 
1.00244 -0.000792448 0.0 
2.6185e-08 -3.30775e-09 0.0 
0.999364 -0.00227726 0.0 
0.99947 -0.000620282 0.0 
1.00349 -0.00702687 0.0 
0.999772 -0.000400064 0.0 
1.00058 0.000149396 0.0 
1.00306 -0.00117136 0.0 
1.00417 -0.000569595 0.0 
1.00199 -0.00317596 0.0 
1.0018 -0.00413611 0.0 
0.998331 -0.00150729 0.0 
0.999934 0.00112597 0.0 
1.00159 -0.00469727 0.0 
1.00484 0.00092722 0.0 
1.00069 -0.00169463 0.0 
1.00096 -0.00199503 0.0 
0.99954 -0.00122727 0.0 
1.00044 0.00602824 0.0 
1.00241 -0.000943805 0.0 
0 0 0.0 
0.995313 -0.000238508 0.0 
0.999704 -0.000836855 0.0 
1.00159 -0.00299199 0.0 
4.99834e-09 -8.9796e-11 0.0 
1.00043 -0.000363623 0.0 
1.00065 -0.00164778 0.0 
0.999063 -0.00151991 0.0 
1.00089 -0.00213457 0.0 
0.999034 -0.00715402 0.0 
1.00126 -0.000746191 0.0 
1.00018 0.000585953 0.0 
0 0 0.0 
1.00234 -0.00142041 0.0 
1.00029 -0.00232852 0.0 
1.00094 -0.00147899 0.0 
1.00593 -0.00230087 0.0 
1.00363 -0.00169561 0.0 
0.999922 0.000237286 0.0 
1.00091 -0.00030869 0.0 
1.0014 -0.00330298 0.0 
1.00129 -0.00351777 0.0 
1.00751 -0.0331964 0.0 
0.999422 -0.000662567 0.0 
1.00093 -0.00228175 0.0 
1.00261 -6.79026e-05 0.0 
1.0012 -0.000111479 0.0 
0.926063 -0.00537202 0.0 
0 0 0.0 
1.00151 0.000741781 0.0 
0.999212 0.00187988 0.0 
0.989086 0.00283997 0.0 
1.00296 0.000359303 0.0 
1.00159 -0.00244245 0.0 
1.00175 -0.00145946 0.0 
0.999685 0.000142728 0.0 
1.0022 -0.000114462 0.0 
0.999294 0.00388893 0.0 
1.0017 -0.00157492 0.0 
0.999754 -0.000462369 0.0 
1.00446 -0.00380104 0.0 
0.99953 -0.000320706 0.0 
1.00159 -0.000415209 0.0 
0.0141009 0.000827828 0.0 
1.01448 -0.00369256 0.0 
1.00878 -0.00460126 0.0 
1.01306 -0.00836701 0.0 
1.00173 -0.000172241 0.0 
1.00418 -0.00811542 0.0 
1.00158 -0.00157509 0.0 
0 0 0.0 
1.00099 -0.00120001 0.0 
0.732709 -0.135771 0.0 
1.04159 -0.0462623 0.0 
0.997451 0.00577373 0.0 
1.00002 -3.92828e-05 0.0 
0.997737 -0.00510783 0.0 
0.990211 0.000432189 0.0 
1.00085 0.00976828 0.0 
1.00261 -0.000509875 0.0 
0.326857 0.0333008 0.0 
1.00149 0.00403188 0.0 
1.00158 -0.00118525 0.0 
1.00166 -0.00156151 0.0 
1.00153 -0.00267229 0.0 
0 0 0.0 
0.999268 -0.000311227 0.0 
1.00109 -0.000701398 0.0 
0.999341 0.00591853 0.0 
0.999724 -0.00231288 0.0 
1.00133 -0.000706995 0.0 
1.00008 -0.0014494 0.0 
1.00254 -0.00344317 0.0 
0.995549 -0.0129837 0.0 
0.986679 -0.000327981 0.0 
0.99871 0.00311794 0.0 
0.999609 -0.00053031 0.0 
1.00099 -0.000538682 0.0 
1.00087 -0.00103306 0.0 
1.00154 0.00106757 0.0 
1.05024 -0.223231 0.0 
0.997221 -0.00661998 0.0 
0.998512 0.00572539 0.0 
1.00001 0.000339008 0.0 
1.00331 -0.00179369 0.0 
1.00192 0.00288326 0.0 
1.00186 -0.00039229 0.0 
0.999943 -0.000752909 0.0 
1.00688 -0.000615646 0.0 
1.00426 -0.0267641 0.0 
1.00183 -0.00144262 0.0 
1.00137 -0.000934824 0.0 
1.00005 -0.000556675 0.0 
0.991026 0.00132483 0.0 
1.00266 -0.000601635 0.0 
1.00072 -0.000356932 0.0 
0.973677 -0.000577232 0.0 
1.00137 -0.000914954 0.0 
0.999126 -0.00257932 0.0 
1.00168 -0.000707953 0.0 
1.00012 -0.0012059 0.0 
1.00271 -0.000233733 0.0 
1.00082 -0.00300079 0.0 
1.00051 -0.000960729 0.0 
1.00067 0.000537431 0.0 
1.00081 -0.000431593 0.0 
1.00043 -0.000994614 0.0 
0.999872 0.00163374 0.0 
1.00464 -0.00029404 0.0 
1.00249 -3.10874e-05 0.0 
1.00139 -0.000487133 0.0 
1.00104 -0.000763436 0.0 
0.998403 0.00172788 0.0 
1.00324 -0.000781601 0.0 
1.00078 -2.76755e-06 0.0 
0.999988 -0.000148131 0.0 
1.00106 -0.000610152 0.0 
1.00054 -0.000691884 0.0 
0.999996 -2.46029e-05 0.0 
1.00016 -0.00119976 0.0 
1.00018 -0.000335288 0.0 
1.00003 -4.78491e-05 0.0 
1.00081 -0.0011937 0.0 
0.998126 -4.52154e-05 0.0 
0 0 0.0 
1.00111 -0.00209543 0.0 
0.999307 0.00241958 0.0 
0.999586 -0.00040798 0.0 
0.99925 -0.000631806 0.0 
1.00222 -0.00146735 0.0 
1.0001 -0.000109687 0.0 
1.00211 -0.0019253 0.0 
1.00193 -0.000818805 0.0 
0 0 0.0 
1.00849 -0.000959346 0.0 
1.05035 -0.0724168 0.0 
1.00167 -0.00124712 0.0 
1.00107 -0.000824796 0.0 
0.998572 -0.000228652 0.0 
1.00001 0.000147044 0.0 
1.00014 -0.0108202 0.0 
1.00201 -0.00350479 0.0 
1.00062 -0.00038519 0.0 
0 0 0.0 
1.00139 -0.00102863 0.0 
0.99989 -0.000786485 0.0 
1.00301 -0.000144705 0.0 
1.00261 -5.64229e-05 0.0 
1.0072 -0.000137274 0.0 
1.0011 -0.000445631 0.0 
1.00021 -0.002935 0.0 
0.997604 0.0549783 0.0 
1.00221 -0.000635006 0.0 
1.0011 -0.00159453 0.0 
1.00168 -0.00296449 0.0 
1.00172 0.0050875 0.0 
1.00206 -0.00137655 0.0 
1.00424 0.00205208 0.0 
1.00512 0.00047981 0.0 
0.999259 -0.000262095 0.0 
1.00185 -0.00162593 0.0 
1.00264 -0.000206905 0.0 
1.00077 -0.00231639 0.0 
1.00104 -0.00034884 0.0 
1.00052 -7.41838e-05 0.0 
0.99976 -0.000762649 0.0 
1.00069 0.00077187 0.0 
1.00184 0.0327369 0.0 
1.00142 0.00047797 0.0 
-2.3715e-09 2.54146e-11 0.0 
1.00048 0.00178579 0.0 
1.00083 -0.00185181 0.0 
1.00368 0.00568101 0.0 
1.00593 -0.0026052 0.0 
0.999996 -0.000462655 0.0 
1.00026 -0.00126088 0.0 
1.00018 -0.00298343 0.0 
0.99904 -0.00214512 0.0 
1.00286 -0.000579301 0.0 
0.999601 -0.000542602 0.0 
0.994495 0.00329439 0.0 
0.999592 -0.00351137 0.0 
0.999468 0.000271932 0.0 
1.00159 -0.00294092 0.0 
0.966491 0.000338738 0.0 
1.00154 -0.00169672 0.0 
1.00076 -0.00148252 0.0 
1.00159 -0.000964233 0.0 
1.00091 -0.000991932 0.0 
0.999185 -0.000487568 0.0 
1.00159 -0.00422613 0.0 
0.999982 0.00136839 0.0 
0.998664 -0.000286664 0.0 
1.00366 -0.000340618 0.0 
0.1807 -0.016398 0.0 
1.00243 -0.000710609 0.0 
1.00138 -0.000149822 0.0 
0.997314 0.00142706 0.0 
1.00009 -0.000870904 0.0 
0.998838 -0.000119345 0.0 
1.00369 -0.000946642 0.0 
1.00007 -0.000366421 0.0 
1.00069 -0.00166288 0.0 