<VTKFile type="UnstructuredGrid" version="0.1" byte_order="LittleEndian">
  <UnstructuredGrid>
    <Piece NumberOfPoints="23679" NumberOfCells="47236">
      <Points>
        <DataArray type = "Float64" NumberOfComponents="3" format="ascii">
-5 -7 0.0 
15.5 -7 0.0 
15.5 7 0.0 
-5 7 0.0 
7.63511 2.91639 0.0 
1.87049 1.67084 0.0 
-0.605974 -0.287769 0.0 
2.37337 -3.10656 0.0 
0.929906 2.48659 0.0 
0.824948 -0.0289232 0.0 
0.579762 -2.6174 0.0 
2.75639 -0.320238 0.0 
0.600589 -0.0279367 0.0 
0.809974 0.0358912 0.0 
4.52511 -0.0925724 0.0 
0.692729 -0.023898 0.0 
2.14598 1.71184 0.0 
4.47114 -0.725108 0.0 
2.94972 0.812693 0.0 
-2.51884 -5.20772 0.0 
0.933054 -0.00978829 0.0 
-3.39004 -0.0550254 0.0 
0.209319 0.0741243 0.0 
-0.14562 -1.1416 0.0 
0.16355 -0.0415655 0.0 
4.37129 -0.146188 0.0 
0.125896 0.0617342 0.0 
2.89507 -0.00321849 0.0 
0.117818 -0.0547525 0.0 
0.74577 -0.0190427 0.0 
1.20907 -2.59566 0.0 
7.05945 1.36908 0.0 
1.18414 0.837326 0.0 
-0.664239 0.00933663 0.0 
0.988285 -0.635056 0.0 
0.79931 -0.0154644 0.0 
-0.169857 -0.752454 0.0 
-0.535193 0.781979 0.0 
4.50646 0.336854 0.0 
0.675201 -0.447934 0.0 
4.33956 3.92927 0.0 
7.20401 -0.547152 0.0 
5.06202 0.761268 0.0 
-1.83764 -0.830466 0.0 
2.97447 -2.59497 0.0 
1.77447 -4.2029 0.0 
0.203756 0.0741702 0.0 
2.3905 -0.208726 0.0 
-2.38226 0.0491773 0.0 
1.57579 -4.90006 0.0 
0.892623 0.876713 0.0 
0.619187 0.0692661 0.0 
1.81524 2.22933 0.0 
3.20393 -0.375619 0.0 
0.560088 -0.0307549 0.0 
-4.00064 -1.06423 0.0 
4.1637 1.41296 0.0 
2.03909 0.577378 0.0 
3.97155 -0.451817 0.0 
-1.0713 0.305678 0.0 
1.24518 -0.853569 0.0 
5.30713 0.379083 0.0 
0.993214 0.00283989 0.0 
0.513972 -3.72515 0.0 
4.25372 1.90694 0.0 
0.87556 0.025233 0.0 
0.401296 0.0780688 0.0 
0.44761 -0.0359067 0.0 
-3.06259 -0.640688 0.0 
0.58449 -3.29242 0.0 
4.47137 0.702541 0.0 
-0.523713 -0.272593 0.0 
-0.477755 -0.422453 0.0 
0.570246 -0.533547 0.0 
0.538433 -0.0310055 0.0 
5.2741 -1.01059 0.0 
2.21102 -1.39328 0.0 
1.30783 -0.274121 0.0 
4.18709 -1.48886 0.0 
-1.19726 -3.28581 0.0 
-0.0359698 -1.75399 0.0 
0.617039 -0.0263973 0.0 
5.83653 0.150199 0.0 
5.57946 0.224905 0.0 
0.377841 -0.038928 0.0 
1.38254 1.36675 0.0 
2.58372 -1.06479 0.0 
4.70454 -3.6075 0.0 
0.551438 0.113173 0.0 
0.532912 -0.0384617 0.0 
-0.392031 -0.729994 0.0 
4.38556 1.53498 0.0 
-1.34387 -2.96962 0.0 
4.73748 -0.295427 0.0 
5.13252 -2.84762 0.0 
5.34987 1.08334 0.0 
0.326684 0.0802051 0.0 
1.0681 0.191919 0.0 
0.292684 0.0800176 0.0 
-0.288073 -0.693253 0.0 
0.850052 0.029488 0.0 
7.72674 -2.22661 0.0 
5.73402 0.253504 0.0 
3.27298 3.73283 0.0 
2.31769 -0.889324 0.0 
3.24694 -2.57408 0.0 
-0.795775 -5.8192 0.0 
0.667923 -0.0361302 0.0 
0.835769 0.0314682 0.0 
4.69839 -1.50939 0.0 
4.91709 3.01814 0.0 
0.151849 -0.0409087 0.0 
3.55148 0.264681 0.0 
0.842117 -0.794382 0.0 
2.65591 1.43349 0.0 
0.932811 0.0144733 0.0 
-0.764917 -0.926758 0.0 
3.60734 -0.915315 0.0 
-0.605852 0.649115 0.0 
5.76621 -0.263827 0.0 
3.08877 -0.924843 0.0 
0.899825 -0.00795866 0.0 
6.80384 1.26814 0.0 
3.19847 -0.826277 0.0 
0.0166341 -0.0962489 0.0 
3.983 -1.51439 0.0 
5.81155 1.05052 0.0 
0.403773 -0.0376754 0.0 
4.06583 -0.737319 0.0 
3.85222 3.16404 0.0 
7.27994 -0.917065 0.0 
7.01199 -1.44503 0.0 
5.44634 0.7472 0.0 
5.43495 -0.0201864 0.0 
1.51213 -0.834065 0.0 
1.97076 0.806002 0.0 
0.634487 0.0595385 0.0 
-0.572414 -4.29099 0.0 
1.8826 -0.733417 0.0 
0.759381 -0.180619 0.0 
0.40132 0.0778474 0.0 
0.23454 -0.0430222 0.0 
-0.802406 2.95957 0.0 
0.691963 0.0549995 0.0 
5.47277 -0.740356 0.0 
14.1487 4.94071 0.0 
0.0736498 -1.30758 0.0 
-3.24273 0.882011 0.0 
1.37104 -0.876055 0.0 
-0.483647 -0.194829 0.0 
2.83565 1.06937 0.0 
5.52957 -1.21731 0.0 
0.947149 -0.00912481 0.0 
-0.408161 -0.611461 0.0 
-0.824132 1.91234 0.0 
-0.28194 0.734853 0.0 
-2.58987 -0.112571 0.0 
5.39673 0.0810302 0.0 
0.347037 -1.34491 0.0 
1.28521 2.08402 0.0 
0.220369 -0.0424097 0.0 
-0.490215 0.575937 0.0 
1.64934 -1.3049 0.0 
0.153085 0.0664047 0.0 
-0.251695 -2.55503 0.0 
0.826156 -0.0139773 0.0 
3.35673 0.186652 0.0 
4.62807 -2.39408 0.0 
-1.05781 -1.39579 0.0 
-2.54531 4.21509 0.0 
1.60336 1.51116 0.0 
0.713093 0.0498095 0.0 
0.643534 0.0642145 0.0 
-3.64101 4.81173 0.0 
-1.26922 -3.94313 0.0 
-0.342655 -1.12768 0.0 
3.30326 0.952175 0.0 
5.64264 0.331249 0.0 
1.34559 -0.214642 0.0 
1.60527 0.321358 0.0 
0.328683 -0.0401423 0.0 
3.81728 0.37784 0.0 
4.37562 0.758715 0.0 
5.5831 -1.82905 0.0 
-1.49688 0.101849 0.0 
-1.70027 -0.343758 0.0 
0.937041 0.0136815 0.0 
5.60623 1.42522 0.0 
-1.23169 -0.42816 0.0 
1.69627 2.52442 0.0 
1.36245 -1.5082 0.0 
1.25107 -3.80948 0.0 
2.74679 0.528168 0.0 
5.36614 -1.19177 0.0 
0.605019 1.16677 0.0 
-4.58423 -1.62108 0.0 
-2.02651 2.34708 0.0 
3.99339 3.63024 0.0 
-1.36142 -0.0750085 0.0 
5.19766 -0.482867 0.0 
-3.85513 -1.43107 0.0 
0.966422 0.00919783 0.0 
0.247834 0.0870881 0.0 
-0.465649 -0.817954 0.0 
4.29025 4.26714 0.0 
1.18312 -0.431176 0.0 
9.21986 0.0258833 0.0 
5.39136 -0.625475 0.0 
5.56604 0.611257 0.0 
1.96388 -1.61685 0.0 
0.196106 -0.0423443 0.0 
2.93186 0.364486 0.0 
5.88518 0.822328 0.0 
0.824138 -0.0139123 0.0 
-0.47228 -0.526413 0.0 
0.477118 -0.0338206 0.0 
-4.64673 -2.62107 0.0 
4.10712 -0.887195 0.0 
0.710355 0.0501717 0.0 
1.64936 -0.864917 0.0 
-1.61346 -3.22424 0.0 
0.0092848 0.0284272 0.0 
7.26993 2.53793 0.0 
1.1048 2.83071 0.0 
10.1588 1.30502 0.0 
-0.263385 -0.26391 0.0 
13.7005 7 0.0 
0.52333 0.0703707 0.0 
4.58595 -1.29531 0.0 
5.62067 -0.188463 0.0 
0.799738 -0.0147854 0.0 
11.9625 -2.20661 0.0 
5.40435 0.619553 0.0 
3.28687 -1.45096 0.0 
0.458966 0.0872446 0.0 
5.51568 -0.596029 0.0 
-1.63011 3.37507 0.0 
0.293181 -0.0414659 0.0 
0.865321 -2.71027 0.0 
0.786038 -0.0158333 0.0 
0.0736186 0.0492692 0.0 
4.13993 -2.76136 0.0 
0.881421 -0.0921271 0.0 
0.266317 -3.38104 0.0 
4.88629 -0.852705 0.0 
0.437008 0.076424 0.0 
3.8816 4.12562 0.0 
7.92184 -0.0908268 0.0 
0.176354 -0.0480078 0.0 
-0.662142 0.143724 0.0 
6.26015 0.128606 0.0 
0.915518 -0.00670685 0.0 
3.62021 -1.04763 0.0 
1.34876 0.720027 0.0 
0.982357 -3.49725 0.0 
0.663709 0.0566737 0.0 
5.3066 -0.705713 0.0 
-0.944514 -3.61431 0.0 
1.79294 -0.661223 0.0 
-0.342215 2.27409 0.0 
5.88842 -0.367403 0.0 
0.211839 -0.0420107 0.0 
0.654413 -0.0369233 0.0 
3.68564 6.54289 0.0 
5.00064 1.8515 0.0 
0.69027 0.0546811 0.0 
1.12166 0.441142 0.0 
7.31715 -3.60167 0.0 
2.79958 1.64327 0.0 
0.433465 0.0764782 0.0 
0.584196 0.0652607 0.0 
0.0636322 -0.695974 0.0 
-1.81416 1.63551 0.0 
0.74075 0.0465749 0.0 
2.69342 -1.49048 0.0 
4.86008 -1.00044 0.0 
0.822907 -0.0142337 0.0 
-0.164664 0.307939 0.0 
4.48127 5.51069 0.0 
4.4895 -4.79993 0.0 
5.37438 1.55243 0.0 
0.123991 1.28664 0.0 
6.41782 -0.499678 0.0 
3.16721 -0.70129 0.0 
1.99155 -0.729552 0.0 
4.69954 4.16905 0.0 
-1.91695 -2.36563 0.0 
8.09216 1.16816 0.0 
0.242046 0.0802658 0.0 
2.34355 2.47663 0.0 
2.72841 -0.285972 0.0 
13.5916 6.05949 0.0 
1.64671 4.40597 0.0 
3.03209 1.84093 0.0 
-0.498111 0.662759 0.0 
0.765551 -2.10462 0.0 
5.25655 0.61914 0.0 
6.04759 -2.75505 0.0 
1.12471 -0.237361 0.0 
6.40695 -2.14103 0.0 
4.37139 0.883681 0.0 
0.240004 -0.042139 0.0 
-4.55867 -4.42627 0.0 
-1.09286 3.96435 0.0 
-1.07351 0.572111 0.0 
3.73338 -0.828021 0.0 
-0.766762 -0.403459 0.0 
0.402752 -1.68281 0.0 
0.925255 0.0164317 0.0 
0.88786 -0.943606 0.0 
0.505244 -0.025873 0.0 
-0.299243 0.0389379 0.0 
3.36416 0.723434 0.0 
0.636773 1.7916 0.0 
0.0435288 1.09333 0.0 
0.74756 2.65039 0.0 
5.12608 -1.02106 0.0 
3.05399 0.794214 0.0 
3.3685 -2.29577 0.0 
9.40833 4.18552 0.0 
0.726496 1.10014 0.0 
-1.43587 -0.265452 0.0 
1.53809 -0.965095 0.0 
3.65342 -1.2467 0.0 
3.58193 2.86195 0.0 
1.58453 1.05649 0.0 
0.69113 -0.0216886 0.0 
4.67304 -0.737386 0.0 
2.403 -2.53676 0.0 
-0.883615 -1.03632 0.0 
0.570985 0.067201 0.0 
4.5489 1.01634 0.0 
1.30188 0.95494 0.0 
4.78484 -2.98767 0.0 
0.647276 3.74647 0.0 
1.64058 -1.98991 0.0 
5.60464 1.66025 0.0 
-2.46641 -2.76999 0.0 
0.0236771 0.0292808 0.0 
1.83737 -2.85625 0.0 
0.712397 -0.0207427 0.0 
-0.929233 -3.15638 0.0 
5.62429 -0.0217768 0.0 
0.696715 -0.0236006 0.0 
4.31467 0.462465 0.0 
1.90518 -1.00498 0.0 
3.8123 -0.317197 0.0 
-1.40698 0.43063 0.0 
8.12686 0.163945 0.0 
0.0912505 -0.0517404 0.0 
0.360402 0.0788181 0.0 
0.766222 5.08386 0.0 
0.543306 0.227627 0.0 
0.768677 -0.887089 0.0 
13.8069 6.49329 0.0 
3.14545 -0.527242 0.0 
3.00213 0.685174 0.0 
-3.26851 -1.17579 0.0 
0.326091 -0.0407782 0.0 
-0.350969 -1.28117 0.0 
-1.34372 -4.38367 0.0 
-1.47047 0.274883 0.0 
8.69891 -0.824176 0.0 
0.572752 0.0666296 0.0 
3.02391 1.56815 0.0 
0.546825 -0.0304958 0.0 
7.53034 -2.92118 0.0 
0.862614 -3.9233 0.0 
7.46433 -0.686568 0.0 
0.435695 0.0763326 0.0 
-0.291216 -0.600905 0.0 
0.958024 -0.00418663 0.0 
0.996359 0.00209859 0.0 
-3.04054 -1.35802 0.0 
7.86523 -1.29492 0.0 
0.824153 0.0339519 0.0 
-2.0843 -1.39076 0.0 
2.0242 4.23744 0.0 
6.10554 -1.09258 0.0 
0.070474 0.0518922 0.0 
0.253412 0.0852338 0.0 
4.90662 -3.37133 0.0 
5.3389 -1.37998 0.0 
8.18441 -5.4394 0.0 
4.74018 -1.11041 0.0 
-1.45792 -1.69797 0.0 
-0.658439 1.28669 0.0 
-1.47154 1.02941 0.0 
0.548603 -1.30682 0.0 
-4.28372 4.01846 0.0 
0.597388 -0.031556 0.0 
0.976283 3.91053 0.0 
-1.97604 3.44687 0.0 
-0.823498 -1.2495 0.0 
-0.676338 -0.322971 0.0 
0.0194499 -2.00073 0.0 
6.06625 2.2173 0.0 
4.77636 1.32682 0.0 
3.5286 -1.40716 0.0 
2.2348 6.10147 0.0 
4.3501 1.14584 0.0 
-0.374853 0.997283 0.0 
0.331239 -0.0398749 0.0 
2.92416 0.944765 0.0 
-1.08711 -0.79613 0.0 
-2.10643 0.811211 0.0 
10.0853 -2.20029 0.0 
9.19723 -1.4685 0.0 
-3.63493 -2.23583 0.0 
9.13289 -4.40814 0.0 
0.13646 -0.0401233 0.0 
3.73879 -1.49966 0.0 
1.16246 1.31001 0.0 
1.76621 -0.985528 0.0 
0.279409 0.0783782 0.0 
4.49882 0.813878 0.0 
0.0773295 0.0501322 0.0 
-1.7711 -2.7915 0.0 
2.21785 -2.83793 0.0 
1.9729 0.35934 0.0 
6.07917 0.172121 0.0 
-1.06801 -1.19434 0.0 
-0.742511 -0.787541 0.0 
4.55801 -0.996424 0.0 
10.0032 -3.21238 0.0 
4.23955 3.27 0.0 
4.4588 0.213546 0.0 
-3.41169 -1.50587 0.0 
0.374392 0.944982 0.0 
[...]
<PointData>
  <DataArray type = "Float64" Name="VitesseP1" NumberOfComponents="3" format="ascii">
1 0 0.0 
1.00005 0 0.0 
0.999968 0 0.0 
1 0 0.0 
0.999884 -5.38023e-05 0.0 
0.999884 -0.00427223 0.0 
0.986668 -0.00853261 0.0 
1.00122 0.000858441 0.0 
1.00281 -0.00166646 0.0 
0.959672 0.061667 0.0 
1.00253 -0.000327388 0.0 
0.997733 0.00252347 0.0 
0.0265629 0.00085095 0.0 
0 0 0.0 
0.999224 0.00049842 0.0 
0.205109 0.0127983 0.0 
0.999304 -0.00335187 0.0 
0.999448 0.000768564 0.0 
0.99737 -0.000690526 0.0 
1.00039 -0.00037728 0.0 
0.350915 0.0232543 0.0 
0.999296 0.000314904 0.0 
0.0838532 0.00972101 0.0 
1.00494 -0.0070135 0.0 
1.30065e-08 -6.2902e-10 0.0 
0.999163 0.000572869 0.0 
3.2128e-08 7.13142e-09 0.0 
0.997301 0.00152967 0.0 
1.16761 -0.114516 0.0 
0.0451087 0.00408843 0.0 
1.00237 0.000538528 0.0 
0.999782 2.09942e-05 0.0 
1.00115 -0.0180404 0.0 
0.983687 0.00130634 0.0 
1.0087 0.0104513 0.0 
0.0334816 0.00161284 0.0 
1.00506 -0.014447 0.0 
1.00034 0.0127274 0.0 
0.999132 0.000276772 0.0 
1.02238 0.0153509 0.0 
1.00006 -0.000460499 0.0 
0.999849 0.000201125 0.0 
0.999373 7.34896e-05 0.0 
0.997844 -0.00154675 0.0 
1.00084 0.00119187 0.0 
1.00118 0.000261753 0.0 
0.185514 0.0185624 0.0 
0.99651 0.00375336 0.0 
0.998194 0.00054777 0.0 
1.00105 0.000113739 0.0 
1.01201 -0.0173755 0.0 
0.7342 -0.0780798 0.0 
1.0009 -0.00276622 0.0 
0.998432 0.00165246 0.0 
0.0678593 0.00417131 0.0 
0.999758 -0.000239849 0.0 
0.999119 -0.000390846 0.0 
0.992274 -0.00264399 0.0 
0.999095 0.000934738 0.0 
0.993229 0.00424683 0.0 
1.00561 0.00687547 0.0 
0.99946 0.000197799 0.0 
2.4978e-09 -2.14249e-09 0.0 
1.00149 -0.000259495 0.0 
0.99937 -0.00051925 0.0 
0.0110136 -0.00197893 0.0 
4.89343e-08 -8.98759e-10 0.0 
0 0 0.0 
0.999087 -0.000171874 0.0 
1.00178 -0.00023401 0.0 
0.999101 7.37583e-05 0.0 
0.984353 -0.0110424 0.0 
0.990275 -0.0141916 0.0 
1.02366 0.00758759 0.0 
0 0 0.0 
0.999709 0.000541808 0.0 
1.00108 0.00314461 0.0 
1.00284 0.00829987 0.0 
0.999811 0.00102003 0.0 
1.00086 -0.00106226 0.0 
1.00371 -0.002928 0.0 
0 0 0.0 
0.99961 0.000217848 0.0 
0.999548 0.000220983 0.0 
6.06537e-08 2.78216e-09 0.0 
1.00142 -0.00760912 0.0 
0.999846 0.00303039 0.0 
1.00038 0.000514611 0.0 
1.12731 -0.0865954 0.0 
0.657035 0.0368175 0.0 
0.999343 -0.0128758 0.0 
0.999255 -0.000349853 0.0 
1.0007 -0.00128172 0.0 
0.999371 0.000523192 0.0 
1.00019 0.000559277 0.0 
0.999483 -9.27643e-06 0.0 
0.146639 0.000574 0.0 
0.966485 -0.0698215 0.0 
0.175275 0.00403481 0.0 
1.00073 -0.0152165 0.0 
3.33513e-08 -5.3385e-09 0.0 
1.00001 0.000221505 0.0 
0.999583 0.000205789 0.0 
1.00026 -0.000744484 0.0 
0.99972 0.00400678 0.0 
1.00064 0.00113211 0.0 
1.00074 -0.000188138 0.0 
0.921823 0.056837 0.0 
0 0 0.0 
0.999819 0.000777678 0.0 
0.999806 -0.000393397 0.0 
0 0 0.0 
0.998313 0.000505816 0.0 
1.01113 0.00664875 0.0 
0.998251 -0.00213028 0.0 
0 0 0.0 
0.998054 -0.0066626 0.0 
0.999338 0.00142979 0.0 
0.996707 0.0128855 0.0 
0.999641 0.000309708 0.0 
0.999292 0.00211486 0.0 
0 0 0.0 
0.999753 2.39255e-05 0.0 
0.999144 0.00192472 0.0 
1.01708 -0.183512 0.0 
0.999832 0.00114578 0.0 
0.999593 2.61667e-05 0.0 
0 0 0.0 
0.999325 0.000994692 0.0 
0.999939 -0.000710083 0.0 
0.999883 0.000220859 0.0 
0.99992 0.000274962 0.0 
0.999494 8.67417e-05 0.0 
0.999535 0.000299701 0.0 
1.00324 0.0067074 0.0 
0.994051 -0.00470512 0.0 
0 0 0.0 
1.00099 -0.000505142 0.0 
1.00055 0.00621344 0.0 
1.01795 0.0409803 0.0 
0 0 0.0 
0.0580055 0.000453747 0.0 
1.00188 0.00119157 0.0 
0.205677 -0.0264201 0.0 
0.999671 0.000449599 0.0 
0.999969 1.24869e-06 0.0 
1.0062 -0.00467848 0.0 
0.99945 0.000962216 0.0 
1.0044 0.00659221 0.0 
0.979738 -0.0103702 0.0 
0.99762 -0.00134171 0.0 
0.999787 0.000500011 0.0 
0.372479 0.0242066 0.0 
0.996576 -0.0143676 0.0 
1.00247 0.0031357 0.0 
1.00503 0.0179504 0.0 
0.998489 0.000339981 0.0 
0.999512 0.000277012 0.0 
1.00716 -0.00219636 0.0 
1.00244 -0.00323794 0.0 
9.23803e-09 -2.85131e-10 0.0 
0.996505 0.0168297 0.0 
1.00278 0.00399033 0.0 
0 0 0.0 
1.00197 -0.00148782 0.0 
0.0641642 0.00480638 0.0 
0.998058 0.000696055 0.0 
1.00014 0.000745368 0.0 
0.999643 -0.00379555 0.0 
1.00057 0.000718597 0.0 
1.0003 -0.00582269 0.0 
0 0 0.0 
0.544222 -0.0630143 0.0 
1.00025 0.000584993 0.0 
1.00077 -0.000728846 0.0 
1.00276 -0.00766266 0.0 
0.998135 -0.000545966 0.0 
0.999554 0.000190636 0.0 
1.00528 0.00739235 0.0 
0.978237 -0.00550596 0.0 
0 0 0.0 
0.998601 0.000322577 0.0 
0.999049 3.08638e-05 0.0 
0.999935 0.000516426 0.0 
0.995611 0.00136062 0.0 
0.996637 -0.000563906 0.0 
0 0 0.0 
0.99958 -6.84279e-05 0.0 
0.994925 -0.00229119 0.0 
1.00129 -0.00219446 0.0 
1.0039 0.00283116 0.0 
1.00144 0.000146173 0.0 
0.996498 -9.61864e-05 0.0 
0.999764 0.00053685 0.0 
1.01308 -0.0054485 0.0 
0.999966 -9.29513e-05 0.0 
1.00056 0.0018092 0.0 
1.00005 -0.000585231 0.0 
0.994578 0.000257986 0.0 
0.999558 0.000460346 0.0 
0.999752 -0.000424273 0.0 
0.0396833 -0.00769349 0.0 
1.11619 0.0797104 0.0 
0.999523 -0.0107468 0.0 
1.00014 -0.000417771 0.0 
1.00338 0.0113543 0.0 
0.999928 8.51613e-05 0.0 
0.999632 0.000445829 0.0 
0.999525 0.000124295 0.0 
1.00188 0.00282107 0.0 
2.21805e-08 -1.13463e-09 0.0 
0.997071 0.000471362 0.0 
0.9996 7.54028e-05 0.0 
0.0432239 0.00285722 0.0 
0.993455 -0.0138337 0.0 
0 0 0.0 
1.00001 -0.000152979 0.0 
0.999434 0.00101377 0.0 
0 0 0.0 
1.00239 0.00618004 0.0 
1.0006 -0.00110382 0.0 
0.665156 0.476774 0.0 
0.999851 -5.70579e-05 0.0 
1.00209 -0.00139493 0.0 
0.999938 3.60309e-05 0.0 
0.979713 -0.0295712 0.0 
0.999968 0 0.0 
0 0 0.0 
0.999725 0.00081546 0.0 
0.999602 0.000315555 0.0 
0 0 0.0 
1.00002 4.91342e-05 0.0 
0.999481 0.000122179 0.0 
0.999944 0.00170846 0.0 
1.02996 -0.0568922 0.0 
0.999649 0.000416186 0.0 
1.00103 0.00106218 0.0 
2.57698e-08 1.17459e-09 0.0 
1.00238 7.02461e-05 0.0 
0 0 0.0 
7.11729e-08 2.14285e-08 0.0 
1.00035 0.000806383 0.0 
0.996437 0.0502518 0.0 
1.00166 -0.000467476 0.0 
0.999594 0.00063259 0.0 
0 0 0.0 
1.00018 -0.000509502 0.0 
0.999873 0.00013067 0.0 
0.73198 -0.0247329 0.0 
0.984557 0.00616674 0.0 
0.99969 0.000192664 0.0 
0 0 0.0 
0.999472 0.00142893 0.0 
0.99474 -0.0175545 0.0 
1.00163 4.41967e-05 0.0 
0.0171736 -0.00207343 0.0 
0.999633 0.000481739 0.0 
1.00097 -0.000883288 0.0 
1.00075 0.00701376 0.0 
1.00339 0.00159161 0.0 
0.999679 0.000313056 0.0 
0 0 0.0 
0.922297 0.0566633 0.0 
1.00039 -7.40516e-05 0.0 
0.999516 -0.00025446 0.0 
0.149728 -0.0190104 0.0 
0.991293 -0.0391028 0.0 
1.00013 0.000225672 0.0 
0.998764 -0.00187134 0.0 
0 0 0.0 
2.13595e-08 -1.7627e-09 0.0 
1.01279 -0.0147745 0.0 
1.00014 0.00253345 0.0 
0.017617 -0.00240523 0.0 
1.00042 0.00237425 0.0 
0.999644 0.000671111 0.0 
0.0680016 0.00417293 0.0 
0.986134 0.0494846 0.0 
1.00024 -0.000206066 0.0 
1.00052 0.000314296 0.0 
0.999542 -0.000123365 0.0 
1.01051 0.00301799 0.0 
0.999769 0.000267818 0.0 
0.99894 0.00194128 0.0 
1.00003 0.00571718 0.0 
1.00006 -0.000364339 0.0 
1.0001 -0.00141546 0.0 
0.999859 4.71123e-05 0.0 
0.593283 0.0422781 0.0 
1.00021 -0.00195498 0.0 
0.997588 0.00254928 0.0 
0.999967 4.6559e-07 0.0 
1.00096 -0.000521266 0.0 
0.999088 -0.00149685 0.0 
0.997693 0.0150808 0.0 
1.00355 3.75701e-05 0.0 
0.999437 0.000125052 0.0 
1.0001 0.000404831 0.0 
0.995755 0.0120436 0.0 
0.999994 0.000368308 0.0 
0.999074 -4.26211e-05 0.0 
0 0 0.0 
1 -0.000195313 0.0 
1.00119 0.000623979 0.0 
0.995702 0.00581416 0.0 
0.99929 0.00128574 0.0 
0.991541 -0.00634802 0.0 
1.00512 -0.00131073 0.0 
1.39378e-07 -2.331e-08 0.0 
1.00933 0.00473939 0.0 
0 0 0.0 
0.954202 0.00612281 0.0 
0.998071 -0.000171048 0.0 
1.00589 -0.00232875 0.0 
1.01265 0.00691894 0.0 
1.00276 -0.00110676 0.0 
0.99969 0.000583508 0.0 
0.99756 -0.000515597 0.0 
1.00048 0.00124013 0.0 
0.999951 -1.79708e-05 0.0 
1.01218 -0.0087384 0.0 
0.995464 -0.000800824 0.0 
1.00323 0.00574373 0.0 
0.999668 0.00141291 0.0 
0.999847 -0.000893313 0.0 
0.997572 -0.00899027 0.0 
0 0 0.0 
0.999505 0.000684137 0.0 
1.00124 0.0013041 0.0 
0.998596 -0.00547321 0.0 
0.0689466 -0.00563082 0.0 
0.999184 -8.45314e-05 0.0 
1.00025 -0.0139345 0.0 
1.00027 0.000609231 0.0 
1.00159 -0.000342561 0.0 
1.00244 0.00186192 0.0 
0.999602 -0.000113188 0.0 
1.0001 -0.001009 0.0 
5.83919e-08 2.9961e-08 0.0 
1.0017 0.000868859 0.0 
6.22203e-08 4.50761e-09 0.0 
1.00104 -0.00115135 0.0 
0.999581 0.000277643 0.0 
0.199287 0.0130739 0.0 
0.999005 0.000214044 0.0 
1.00137 0.00486875 0.0 
0.998902 0.000958077 0.0 
0.996027 0.00303727 0.0 
0.999876 0.000108081 0.0 
1.17117 -0.159453 0.0 
1.69958e-08 5.54574e-10 0.0 
1.00101 -0.000152352 0.0 
1.09904 -0.0537492 0.0 
1.0114 0.00429456 0.0 
0.999968 1.68818e-07 0.0 
0.998619 0.00188081 0.0 
0.997394 -0.000332173 0.0 
0.999431 -0.000458456 0.0 
0.019817 0.0010232 0.0 
1.00269 -0.00606051 0.0 
1.00073 -0.000572061 0.0 
0.995852 0.00216095 0.0 
0.999939 0.000129942 0.0 
0.0215834 -0.00246106 0.0 
0.998673 -0.00147611 0.0 
0 0 0.0 
1.00007 0.000231427 0.0 
1.00141 -3.94472e-05 0.0 
0.999876 0.000192741 0.0 
0 0 0.0 
0.999318 -0.017812 0.0 
0 0 0.0 
0 0 0.0 
0.999389 -0.000615393 0.0 
0.999938 0.000192328 0.0 
0.0162082 -0.00324829 0.0 
0.999065 -0.00151822 0.0 
1.00084 -0.000640147 0.0 
0.999818 0.000375668 0.0 
0.795012 0.250467 0.0 
0.997961 0.0660469 0.0 
1.00031 0.000523174 0.0 
0.999814 0.000560331 0.0 
1.00018 8.82331e-05 0.0 
0.999669 0.000729748 0.0 
0.999705 -0.00247332 0.0 
1.00257 0.00653946 0.0 
0.998697 0.00374207 0.0 
1.00764 -0.000456745 0.0 
1.00005 0.000602141 0.0 
0.384605 0.0227409 0.0 
1.0014 -0.000483917 0.0 
1.00084 0.00105189 0.0 
0.99975 -0.00490571 0.0 
0.988859 -0.00733918 0.0 
1.00322 -0.00199719 0.0 
0.999733 -0.000133309 0.0 
0.99934 -0.000166582 0.0 
0.99983 0.00150348 0.0 
1.00066 -0.000147936 0.0 
0.999109 -0.000188555 0.0 
1.00508 0.0107497 0.0 
0 0 0.0 
0.997535 -0.000980908 0.0 
0.99661 -0.00430344 0.0 
0.998588 0.0019459 0.0 
1.00001 9.55918e-05 0.0 
0.999978 0.000123952 0.0 
0.999861 -0.000671595 0.0 
1.00011 0.000100838 0.0 
0 0 0.0 
0.999858 0.00130341 0.0 
1.00381 -0.00860513 0.0 
1.00198 0.00523803 0.0 
0 0 0.0 
0.999129 1.1997e-05 0.0 
0 0 0.0 
1.00038 -0.001289 0.0 
1.00141 0.00102667 0.0 
0.989822 -0.000100518 0.0 
0.999657 0.000197754 0.0 
0.998816 -0.0041865 0.0 
0.997033 -0.00746981 0.0 
0.999591 0.000789073 0.0 
1.00005 9.44391e-05 0.0 
0.999914 -0.000567704 0.0 
0.99912 0.000352175 0.0 
0.999588 -0.000561013 0.0 
1.01992 -0.000246952 0.0 
0 0 0.0 
1.00001 2.54721e-05 0.0 
1.01633 0.0098259 0.0 
0.999916 0.000114731 0.0 
0.9968 0.00820326 0.0 
1.00066 0.00276532 0.0 
0.138568 -0.0223901 0.0 
0.999726 0.000949822 0.0 
0.999842 -0.00698708 0.0 
1.00063 0.00102904 0.0 
0.997062 -0.00332107 0.0 
5.67759e-08 8.9767e-10 0.0 
1.00003 5.37273e-05 0.0 
0.999265 -4.43368e-05 0.0 
0 0 0.0 
0.999874 0.00261958 0.0 
1.001 0.00349185 0.0 
2.74399e-07 -9.38122e-09 0.0 
0.999144 0.00237973 0.0 
0.999827 -0.00118593 0.0 
0.999784 -0.000154668 0.0 
0.0315917 0.000849564 0.0 
1.00405 -0.000181201 0.0 
1.00024 0.000113127 0.0 
1.00127 0.00170426 0.0 
1.00838 -0.00143895 0.0 
1.00005 2.4727e-05 0.0 
1.00142 -0.00119014 0.0 
1.00012 6.06751e-05 0.0 
0.999428 0.00201287 0.0 
0.999432 0.00128586 0.0 
0.110592 0.0208532 0.0 
1.00104 0.00153058 0.0 
0.307547 0.0233294 0.0 
1.00425 0.000647542 0.0 
0.999999 0.00110678 0.0 
0.999638 0.00149426 0.0 
1.00076 0.000280364 0.0 
0.999863 0.00040429 0.0 
0.99972 0.00113522 0.0 
1.00421 0.00873638 0.0 
1.00032 0.000119697 0.0 
1.01498 -0.0121228 0.0 
1.00148 0.00313719 0.0 
0.999997 4.63343e-05 0.0 
0 0 0.0 
0.999517 -0.000192697 0.0 
0.998201 -5.40498e-05 0.0 
0.999977 2.65791e-05 0.0 
1.00214 0.0154253 0.0 
0.996494 0.000552188 0.0 
0.999995 -3.48284e-05 0.0 
1.0002 0.000372535 0.0 
0.999682 0.000237364 0.0 
0.999655 0.000270459 0.0 
1.38286e-08 -5.97675e-11 0.0 
1.00152 0.000989192 0.0 
0.999232 0.000274854 0.0 
1.00085 -0.0011359 0.0 
1.00163 -0.000997507 0.0 
0.996115 0.000478462 0.0 
0 0 0.0 
0.998008 -0.00287829 0.0 
0.999834 9.5377e-05 0.0 
0.999683 -0.00103663 0.0 
0 0 0.0 
0.999974 -0.000225406 0.0 
0.999691 0.000282296 0.0 
1.00019 0.000484786 0.0 
1.00084 0.00457768 0.0 
1.00103 0.000577781 0.0 
1.0008 -0.00359316 0.0 
0.999615 0.000268028 0.0 
1.00252 -0.00367565 0.0 
1.00007 0.000157253 0.0 
0.999219 -0.000799119 0.0 
0.999968 5.78516e-07 0.0 
1.00198 0.000652603 0.0 
0.999978 0.00115077 0.0 
0.999184 0.00215258 0.0 
0.998243 0.000759969 0.0 
0.999966 7.04947e-07 0.0 
1.00065 -0.000554798 0.0 
0.99953 0.000997234 0.0 
1.00014 0.00056135 0.0 
0.156184 -0.00985781 0.0 
1.01749 -0.0550236 0.0 
1.00028 0.000143274 0.0 
1.00418 0.0055931 0.0 
0.244362 -0.0146059 0.0 
0.999448 -0.000412663 0.0 
0.900405 -0.0959155 0.0 
0.999782 -0.00148292 0.0 
1.00028 -0.000413902 0.0 
0.997638 0.00080277 0.0 
1.00102 0.0020716 0.0 
0.998917 -0.00129753 0.0 
0.0245059 0.00100163 0.0 
1.00048 -0.00013183 0.0 
1.00228 -0.00194664 0.0 
1.00008 0.000355748 0.0 
0.999936 5.79404e-05 0.0 
0.996444 -0.00164246 0.0 
0.999483 -0.000140278 0.0 
0.999974 9.18413e-05 0.0 
0.999356 0.000189619 0.0 
0.985433 -0.00548024 0.0 
1.0014 0.00080343 0.0 
0.997462 -0.00217711 0.0 
1.00474 0.00458233 0.0 
1.2643e-08 8.69233e-10 0.0 
0.999968 1.6209e-07 0.0 
8.26784e-08 3.93903e-08 0.0 
1 -0.000310677 0.0 
0.992628 0.00039632 0.0 
0.999992 0.000435106 0.0 
0.999685 0.000489714 0.0 
1.00085 0.00181012 0.0 
0.993208 -0.00377723 0.0 
0 0 0.0 
0.999966 2.92033e-06 0.0 
1.00017 0.0098665 0.0 
0.999977 8.39986e-06 0.0 
0.114081 0.00179734 0.0 
0.0549093 0.00281621 0.0 
0 0 0.0 
1.00003 3.39348e-05 0.0 
0.999904 -6.03062e-05 0.0 
1.00044 -0.00103284 0.0 
1.00042 -0.000542099 0.0 
1.00084 -0.00142857 0.0 
0.999524 0.00204568 0.0 
0.998624 -0.00179323 0.0 
1.00152 -0.000650877 0.0 
0.999949 -0.000178252 0.0 
0.245774 -0.0358619 0.0 
0.999972 4.33506e-06 0.0 
0.999596 0.00017381 0.0 
1.00804 0.00125126 0.0 
1.00005 0.000173605 0.0 
0.99945 -0.00133423 0.0 
0.999273 -0.000246909 0.0 
0.99917 -0.00103547 0.0 
0.999589 -0.000695398 0.0 
1.00003 8.4531e-06 0.0 
0.999892 -2.19336e-05 0.0 
0.996662 0.000194658 0.0 
0.999768 0.000401929 0.0 
1.00011 0.000584376 0.0 
1.00055 0.000826525 0.0 
1.00032 -0.000389123 0.0 
0.989326 -0.0113125 0.0 
0.994839 2.78004e-05 0.0 
1.0093 0.000393499 0.0 
0.994968 -0.000399912 0.0 
0.997771 -0.00383873 0.0 
1.00105 0.00216428 0.0 
1.00201 0.0102694 0.0 
1.01086 -0.00316013 0.0 
0.998226 -0.000811271 0.0 
0.486192 0.186373 0.0 
1.0023 0.00188711 0.0 
1.00125 -0.000731162 0.0 
0.994548 0.00117237 0.0 
1.00033 0.000278723 0.0 
1 0.00058331 0.0 
0.999438 0.000164231 0.0 
1.00061 0.000350079 0.0 
0.99996 0.000171966 0.0 
1.00118 0.00134644 0.0 
1.00001 0.000263979 0.0 
1.02114e-07 -1.32219e-08 0.0 
0.999643 0.000103522 0.0 
0.999934 -2.29334e-05 0.0 
0.99734 -0.00306269 0.0 
1.00026 -0.00104985 0.0 
1.00062 9.8563e-05 0.0 
1.00106 -0.000910458 0.0 
1 0.000101673 0.0 
0.999356 -0.000945345 0.0 
0.998539 -0.000707647 0.0 
0.999831 -0.00302753 0.0 
0.999791 0.000828145 0.0 
0.997932 -0.000347664 0.0 
1.00974 0.00260593 0.0 
0.999781 -0.000297836 0.0 
0.999714 -0.000406653 0.0 
0.999931 2.90856e-05 0.0 
0.999295 0.00324133 0.0 
1.00004 0.00028981 0.0 
0 0 0.0 
0.999978 5.51035e-05 0.0 
0.999992 -0.000155924 0.0 
0.999076 -0.000112049 0.0 
9.19262e-09 -3.33857e-10 0.0 
1.00088 -0.000276006 0.0 
0.999737 -0.000179604 0.0 
0.99988 3.19433e-05 0.0 
0.999414 0.00163959 0.0 
1.00328 -0.00909013 0.0 
1.0009 0.000607588 0.0 
1.0002 0.000726241 0.0 
0 0 0.0 
0.999884 0.00046747 0.0 
1.00259 -0.00276723 0.0 
1.00025 0.00173873 0.0 
0.999823 0.000227945 0.0 
0.999903 5.75301e-05 0.0 
0.999884 -0.00023901 0.0 
1.00092 8.00988e-05 0.0 
1.00473 -0.00362165 0.0 
0.998558 0.000565642 0.0 
0.986035 -0.0350079 0.0 
0.999942 2.54871e-05 0.0 
0.999248 0.00154972 0.0 
1.0013 -0.000302216 0.0 
1.00073 5.80275e-05 0.0 
0.99744 0.00126559 0.0 
0 0 0.0 
1.00102 0.000327532 0.0 
0.998959 0.000467655 0.0 
0.990549 -0.00221016 0.0 
1.00151 -0.000117075 0.0 
0.999346 9.51809e-05 0.0 
0.999933 0.000849757 0.0 
0.999751 -0.000713114 0.0 
1.00021 4.2744e-05 0.0 
0.998759 0.00175788 0.0 
0.999814 0.000861772 0.0 
1.00013 -0.000122011 0.0 
1.00033 -0.0024287 0.0 
1.0001 -7.5172e-05 0.0 
1.00051 0.000256464 0.0 
0.0319791 0.00186063 0.0 
1.00687 -0.0057372 0.0 
1.00239 -0.00447664 0.0 
1.02063 -0.00800584 0.0 
1.00042 9.39783e-05 0.0 
0.996981 -0.00412341 0.0 
0.999829 0.000329991 0.0 
0 0 0.0 
1.0007 0.00155462 0.0 
0.746292 -0.167424 0.0 
1.02503 -0.058026 0.0 
0.996955 0.00239735 0.0 
1.00011 -0.000220008 0.0 
1.00105 -0.00712779 0.0 
0.991969 -0.00441026 0.0 
0.999122 0.00564032 0.0 
1.00117 -0.000532223 0.0 
0.345734 0.0349353 0.0 
1.00045 0.00216438 0.0 
1.00028 0.000909409 0.0 
0.999862 0.000931208 0.0 
0.999351 -0.000389524 0.0 
0 0 0.0 
0.999787 -0.00139449 0.0 
1.00119 0.000450266 0.0 
0.998425 0.00300609 0.0 
1.00187 -0.00311019 0.0 
1.0008 0.000542106 0.0 
1.00157 -0.00181442 0.0 
0.99952 -0.00137962 0.0 
0.984225 0.0033994 0.0 
0.999993 1.17575e-05 0.0 
0.998349 0.000939446 0.0 
0.999937 -5.60473e-06 0.0 
1.00107 0.000213773 0.0 
1.00215 -0.000316796 0.0 
1.00102 0.000522231 0.0 
1.07592 -0.229252 0.0 
1.00115 -0.0090713 0.0 
0.99781 0.00253456 0.0 
1.00001 0.000424419 0.0 
0.999909 0.000202516 0.0 
1.00095 0.00153903 0.0 
1.00499 0.0015072 0.0 
1.00011 -0.000203681 0.0 
0.999995 5.4903e-05 0.0 
0.983635 -0.0250332 0.0 
0.999815 0.000415394 0.0 
1.00056 -0.000492132 0.0 
0.999976 5.42189e-06 0.0 
1.00296 0.010993 0.0 
1.00001 3.01804e-05 0.0 
1.00098 -3.49349e-05 0.0 
0.999902 9.68081e-05 0.0 
1.00071 0.000813426 0.0 
0.999578 0.000134978 0.0 
1.00046 0.000465482 0.0 
0.99988 -0.000164676 0.0 
1.00008 4.7798e-05 0.0 
0.998549 0.00122814 0.0 
1.00133 0.00255767 0.0 
1.00061 0.000354358 0.0 
1.00283 0.00246513 0.0 
1.00151 -0.000905238 0.0 
0.999607 0.000956918 0.0 
1 2.16613e-05 0.0 
1.00003 4.78828e-05 0.0 
1.00075 -0.00031956 0.0 
1.00242 0.00140103 0.0 
0.99839 -0.00016806 0.0 
1.00002 2.75241e-05 0.0 
1 6.3594e-05 0.0 
1.00018 -0.000592137 0.0 
1.00108 0.00032597 0.0 
0.999961 2.2614e-05 0.0 
0.999995 -0.00030371 0.0 
0.999966 -0.000269155 0.0 
1.00063 -0.000481268 0.0 
1.00018 -0.000184905 0.0 
1.0023 -0.00071772 0.0 
0.999967 1.75199e-07 0.0 
0 0 0.0 
0.999718 -0.000495187 0.0 
0.998959 0.000867968 0.0 
1.00011 -0.00123428 0.0 
0.999941 -3.38608e-05 0.0 
1.00553 -0.000534814 0.0 
1.00038 -0.000226867 0.0 
1.00031 -0.000951296 0.0 
1.00026 0.000456696 0.0 
0 0 0.0 
0.999997 3.89573e-05 0.0 
1.03321 -0.0899513 0.0 
1.00051 -0.000664414 0.0 
1.00145 0.000741347 0.0 
0.999964 -3.44334e-06 0.0 
1.00001 0.000222994 0.0 
0.991392 -0.00180831 0.0 
0.999039 -0.000779265 0.0 
1.00099 -0.000114033 0.0 
0 0 0.0 
1.00061 0.000960908 0.0 
0.999916 -7.37119e-06 0.0 
1.00003 1.91821e-05 0.0 
0.999972 2.26217e-05 0.0 
0.99963 0.000175771 0.0 
1.0009 0.000225549 0.0 
0.999602 0.000109335 0.0 
0.993508 0.0447648 0.0 
0.999943 4.69574e-05 0.0 
0.999733 -4.51608e-05 0.0 
0.999223 -0.00046755 0.0 
1.0004 0.00276456 0.0 
0.999875 0.000567009 0.0 
1.00222 0.00073742 0.0 
0.99988 5.55658e-05 0.0 
1.00005 -4.80331e-05 0.0 
1.00041 -0.000812667 0.0 
1.00648 0.00149904 0.0 
0.999209 0.00172243 0.0 
1.00088 0.000148004 0.0 
1.00082 -3.06947e-05 0.0 
1.00005 -0.000172792 0.0 
1.0006 0.000522639 0.0 
0.998389 0.0249191 0.0 
1.00098 0.000180052 0.0 
6.37757e-09 -1.84533e-09 0.0 
1.0002 0.00120441 0.0 
0.999737 -0.000343162 0.0 
1.00167 0.00305856 0.0 
0.999852 0.000241142 0.0 
1.00192 0.00345667 0.0 
1.00157 -0.00143618 0.0 
0.998577 0.00112141 0.0 
0.999159 0.00383873 0.0 
1.00003 9.03854e-05 0.0 
1.00008 -0.000122373 0.0 
1.00285 0.00930479 0.0 
0.997735 0.00219547 0.0 
0.99955 -0.000719732 0.0 
0.999058 0.000100386 0.0 
0.999841 0.00013425 0.0 
0.999617 -1.84582e-05 0.0 
0.999767 -8.17947e-06 0.0 
1.00044 0.000736305 0.0 
1.00127 0.00170923 0.0 
0.999993 -6.53199e-05 0.0 
0.998263 -0.000210453 0.0 
0.999792 0.00101589 0.0 
0.999964 2.04672e-06 0.0 
0.99993 4.48072e-05 0.0 
0.540213 -0.0822117 0.0 
1.0001 0.000240568 0.0 
1.00062 8.79583e-05 0.0 
0.997741 -0.000920176 0.0 
0.999903 -7.14252e-06 0.0 
0.999999 -1.24809e-05 0.0 
1.00002 4.25681e-05 0.0 
1.00051 -0.000684361 0.0 