<VTKFile type="UnstructuredGrid" version="0.1" byte_order="LittleEndian">
  <UnstructuredGrid>
    <Piece NumberOfPoints="23679" NumberOfCells="47236">
      <Points>
        <DataArray type = "Float64" NumberOfComponents="3" format="ascii">
-5 -7 0.0 
15.5 -7 0.0 
15.5 7 0.0 
-5 7 0.0 
7.63511 2.91639 0.0 
1.87049 1.67084 0.0 
-0.605974 -0.287769 0.0 
2.37337 -3.10656 0.0 
0.929906 2.48659 0.0 
0.824948 -0.0289232 0.0 
0.579762 -2.6174 0.0 
2.75639 -0.320238 0.0 
0.600589 -0.0279367 0.0 
0.809974 0.0358912 0.0 
4.52511 -0.0925724 0.0 
0.692729 -0.023898 0.0 
2.14598 1.71184 0.0 
4.47114 -0.725108 0.0 
2.94972 0.812693 0.0 
-2.51884 -5.20772 0.0 
0.933054 -0.00978829 0.0 
-3.39004 -0.0550254 0.0 
0.209319 0.0741243 0.0 
-0.14562 -1.1416 0.0 
0.16355 -0.0415655 0.0 
4.37129 -0.146188 0.0 
0.125896 0.0617342 0.0 
2.89507 -0.00321849 0.0 
0.117818 -0.0547525 0.0 
0.74577 -0.0190427 0.0 
1.20907 -2.59566 0.0 
7.05945 1.36908 0.0 
1.18414 0.837326 0.0 
-0.664239 0.00933663 0.0 
0.988285 -0.635056 0.0 
0.79931 -0.0154644 0.0 
-0.169857 -0.752454 0.0 
-0.535193 0.781979 0.0 
4.50646 0.336854 0.0 
0.675201 -0.447934 0.0 
4.33956 3.92927 0.0 
7.20401 -0.547152 0.0 
5.06202 0.761268 0.0 
-1.83764 -0.830466 0.0 
2.97447 -2.59497 0.0 
1.77447 -4.2029 0.0 
0.203756 0.0741702 0.0 
2.3905 -0.208726 0.0 
-2.38226 0.0491773 0.0 
1.57579 -4.90006 0.0 
0.892623 0.876713 0.0 
0.619187 0.0692661 0.0 
1.81524 2.22933 0.0 
3.20393 -0.375619 0.0 
0.560088 -0.0307549 0.0 
-4.00064 -1.06423 0.0 
4.1637 1.41296 0.0 
2.03909 0.577378 0.0 
3.97155 -0.451817 0.0 
-1.0713 0.305678 0.0 
1.24518 -0.853569 0.0 
5.30713 0.379083 0.0 
0.993214 0.00283989 0.0 
0.513972 -3.72515 0.0 
4.25372 1.90694 0.0 
0.87556 0.025233 0.0 
0.401296 0.0780688 0.0 
0.44761 -0.0359067 0.0 
-3.06259 -0.640688 0.0 
0.58449 -3.29242 0.0 
4.47137 0.702541 0.0 
-0.523713 -0.272593 0.0 
-0.477755 -0.422453 0.0 
0.570246 -0.533547 0.0 
0.538433 -0.0310055 0.0 
5.2741 -1.01059 0.0 
2.21102 -1.39328 0.0 
1.30783 -0.274121 0.0 
4.18709 -1.48886 0.0 
-1.19726 -3.28581 0.0 
-0.0359698 -1.75399 0.0 
0.617039 -0.0263973 0.0 
5.83653 0.150199 0.0 
5.57946 0.224905 0.0 
0.377841 -0.038928 0.0 
1.38254 1.36675 0.0 
2.58372 -1.06479 0.0 
4.70454 -3.6075 0.0 
0.551438 0.113173 0.0 
0.532912 -0.0384617 0.0 
-0.392031 -0.729994 0.0 
4.38556 1.53498 0.0 
-1.34387 -2.96962 0.0 
4.73748 -0.295427 0.0 
5.13252 -2.84762 0.0 
5.34987 1.08334 0.0 
0.326684 0.0802051 0.0 
1.0681 0.191919 0.0 
0.292684 0.0800176 0.0 
-0.288073 -0.693253 0.0 
0.850052 0.029488 0.0 
7.72674 -2.22661 0.0 
5.73402 0.253504 0.0 
3.27298 3.73283 0.0 
2.31769 -0.889324 0.0 
3.24694 -2.57408 0.0 
-0.795775 -5.8192 0.0 
0.667923 -0.0361302 0.0 
0.835769 0.0314682 0.0 
4.69839 -1.50939 0.0 
4.91709 3.01814 0.0 
0.151849 -0.0409087 0.0 
3.55148 0.264681 0.0 
0.842117 -0.794382 0.0 
2.65591 1.43349 0.0 
0.932811 0.0144733 0.0 
-0.764917 -0.926758 0.0 
3.60734 -0.915315 0.0 
-0.605852 0.649115 0.0 
5.76621 -0.263827 0.0 
3.08877 -0.924843 0.0 
0.899825 -0.00795866 0.0 
6.80384 1.26814 0.0 
3.19847 -0.826277 0.0 
0.0166341 -0.0962489 0.0 
3.983 -1.51439 0.0 
5.81155 1.05052 0.0 
0.403773 -0.0376754 0.0 
4.06583 -0.737319 0.0 
3.85222 3.16404 0.0 
7.27994 -0.917065 0.0 
7.01199 -1.44503 0.0 
5.44634 0.7472 0.0 
5.43495 -0.0201864 0.0 
1.51213 -0.834065 0.0 
1.97076 0.806002 0.0 
0.634487 0.0595385 0.0 
-0.572414 -4.29099 0.0 
1.8826 -0.733417 0.0 
0.759381 -0.180619 0.0 
0.40132 0.0778474 0.0 
0.23454 -0.0430222 0.0 
-0.802406 2.95957 0.0 
0.691963 0.0549995 0.0 
5.47277 -0.740356 0.0 
14.1487 4.94071 0.0 
0.0736498 -1.30758 0.0 
-3.24273 0.882011 0.0 
1.37104 -0.876055 0.0 
-0.483647 -0.194829 0.0 
2.83565 1.06937 0.0 
5.52957 -1.21731 0.0 
0.947149 -0.00912481 0.0 
-0.408161 -0.611461 0.0 
-0.824132 1.91234 0.0 
-0.28194 0.734853 0.0 
-2.58987 -0.112571 0.0 
5.39673 0.0810302 0.0 
0.347037 -1.34491 0.0 
1.28521 2.08402 0.0 
0.220369 -0.0424097 0.0 
-0.490215 0.575937 0.0 
1.64934 -1.3049 0.0 
0.153085 0.0664047 0.0 
-0.251695 -2.55503 0.0 
0.826156 -0.0139773 0.0 
3.35673 0.186652 0.0 
4.62807 -2.39408 0.0 
-1.05781 -1.39579 0.0 
-2.54531 4.21509 0.0 
1.60336 1.51116 0.0 
0.713093 0.0498095 0.0 
0.643534 0.0642145 0.0 
-3.64101 4.81173 0.0 
-1.26922 -3.94313 0.0 
-0.342655 -1.12768 0.0 
3.30326 0.952175 0.0 
5.64264 0.331249 0.0 
1.34559 -0.214642 0.0 
1.60527 0.321358 0.0 
0.328683 -0.0401423 0.0 
3.81728 0.37784 0.0 
4.37562 0.758715 0.0 
5.5831 -1.82905 0.0 
-1.49688 0.101849 0.0 
-1.70027 -0.343758 0.0 
0.937041 0.0136815 0.0 
5.60623 1.42522 0.0 
-1.23169 -0.42816 0.0 
1.69627 2.52442 0.0 
1.36245 -1.5082 0.0 
1.25107 -3.80948 0.0 
2.74679 0.528168 0.0 
5.36614 -1.19177 0.0 
0.605019 1.16677 0.0 
-4.58423 -1.62108 0.0 
-2.02651 2.34708 0.0 
3.99339 3.63024 0.0 
-1.36142 -0.0750085 0.0 
5.19766 -0.482867 0.0 
-3.85513 -1.43107 0.0 
0.966422 0.00919783 0.0 
0.247834 0.0870881 0.0 
-0.465649 -0.817954 0.0 
4.29025 4.26714 0.0 
1.18312 -0.431176 0.0 
9.21986 0.0258833 0.0 
5.39136 -0.625475 0.0 
5.56604 0.611257 0.0 
1.96388 -1.61685 0.0 
0.196106 -0.0423443 0.0 
2.93186 0.364486 0.0 
5.88518 0.822328 0.0 
0.824138 -0.0139123 0.0 
-0.47228 -0.526413 0.0 
0.477118 -0.0338206 0.0 
-4.64673 -2.62107 0.0 
4.10712 -0.887195 0.0 
0.710355 0.0501717 0.0 
1.64936 -0.864917 0.0 
-1.61346 -3.22424 0.0 
0.0092848 0.0284272 0.0 
7.26993 2.53793 0.0 
1.1048 2.83071 0.0 
10.1588 1.30502 0.0 
-0.263385 -0.26391 0.0 
13.7005 7 0.0 
0.52333 0.0703707 0.0 
4.58595 -1.29531 0.0 
5.62067 -0.188463 0.0 
0.799738 -0.0147854 0.0 
11.9625 -2.20661 0.0 
5.40435 0.619553 0.0 
3.28687 -1.45096 0.0 
0.458966 0.0872446 0.0 
5.51568 -0.596029 0.0 
-1.63011 3.37507 0.0 
0.293181 -0.0414659 0.0 
0.865321 -2.71027 0.0 
0.786038 -0.0158333 0.0 
0.0736186 0.0492692 0.0 
4.13993 -2.76136 0.0 
0.881421 -0.0921271 0.0 
0.266317 -3.38104 0.0 
4.88629 -0.852705 0.0 
0.437008 0.076424 0.0 
3.8816 4.12562 0.0 
7.92184 -0.0908268 0.0 
0.176354 -0.0480078 0.0 
-0.662142 0.143724 0.0 
6.26015 0.128606 0.0 
0.915518 -0.00670685 0.0 
3.62021 -1.04763 0.0 
1.34876 0.720027 0.0 
0.982357 -3.49725 0.0 
0.663709 0.0566737 0.0 
5.3066 -0.705713 0.0 
-0.944514 -3.61431 0.0 
1.79294 -0.661223 0.0 
-0.342215 2.27409 0.0 
5.88842 -0.367403 0.0 
0.211839 -0.0420107 0.0 
0.654413 -0.0369233 0.0 
3.68564 6.54289 0.0 
5.00064 1.8515 0.0 
0.69027 0.0546811 0.0 
1.12166 0.441142 0.0 
7.31715 -3.60167 0.0 
2.79958 1.64327 0.0 
0.433465 0.0764782 0.0 
0.584196 0.0652607 0.0 
0.0636322 -0.695974 0.0 
-1.81416 1.63551 0.0 
0.74075 0.0465749 0.0 
2.69342 -1.49048 0.0 
4.86008 -1.00044 0.0 
0.822907 -0.0142337 0.0 
-0.164664 0.307939 0.0 
4.48127 5.51069 0.0 
4.4895 -4.79993 0.0 
5.37438 1.55243 0.0 
0.123991 1.28664 0.0 
6.41782 -0.499678 0.0 
3.16721 -0.70129 0.0 
1.99155 -0.729552 0.0 
4.69954 4.16905 0.0 
-1.91695 -2.36563 0.0 
8.09216 1.16816 0.0 
0.242046 0.0802658 0.0 
2.34355 2.47663 0.0 
2.72841 -0.285972 0.0 
13.5916 6.05949 0.0 
1.64671 4.40597 0.0 
3.03209 1.84093 0.0 
-0.498111 0.662759 0.0 
0.765551 -2.10462 0.0 
5.25655 0.61914 0.0 
6.04759 -2.75505 0.0 
1.12471 -0.237361 0.0 
6.40695 -2.14103 0.0 
4.37139 0.883681 0.0 
0.240004 -0.042139 0.0 
-4.55867 -4.42627 0.0 
-1.09286 3.96435 0.0 
-1.07351 0.572111 0.0 
3.73338 -0.828021 0.0 
-0.766762 -0.403459 0.0 
0.402752 -1.68281 0.0 
0.925255 0.0164317 0.0 
0.88786 -0.943606 0.0 
0.505244 -0.025873 0.0 
-0.299243 0.0389379 0.0 
3.36416 0.723434 0.0 
0.636773 1.7916 0.0 
0.0435288 1.09333 0.0 
0.74756 2.65039 0.0 
5.12608 -1.02106 0.0 
3.05399 0.794214 0.0 
3.3685 -2.29577 0.0 
9.40833 4.18552 0.0 
0.726496 1.10014 0.0 
-1.43587 -0.265452 0.0 
1.53809 -0.965095 0.0 
3.65342 -1.2467 0.0 
3.58193 2.86195 0.0 
1.58453 1.05649 0.0 
0.69113 -0.0216886 0.0 
4.67304 -0.737386 0.0 
2.403 -2.53676 0.0 
-0.883615 -1.03632 0.0 
0.570985 0.067201 0.0 
4.5489 1.01634 0.0 
1.30188 0.95494 0.0 
4.78484 -2.98767 0.0 
0.647276 3.74647 0.0 
1.64058 -1.98991 0.0 
5.60464 1.66025 0.0 
-2.46641 -2.76999 0.0 
0.0236771 0.0292808 0.0 
1.83737 -2.85625 0.0 
0.712397 -0.0207427 0.0 
-0.929233 -3.15638 0.0 
5.62429 -0.0217768 0.0 
0.696715 -0.0236006 0.0 
4.31467 0.462465 0.0 
1.90518 -1.00498 0.0 
3.8123 -0.317197 0.0 
-1.40698 0.43063 0.0 
8.12686 0.163945 0.0 
0.0912505 -0.0517404 0.0 
0.360402 0.0788181 0.0 
0.766222 5.08386 0.0 
0.543306 0.227627 0.0 
0.768677 -0.887089 0.0 
13.8069 6.49329 0.0 
3.14545 -0.527242 0.0 
3.00213 0.685174 0.0 
-3.26851 -1.17579 0.0 
0.326091 -0.0407782 0.0 
-0.350969 -1.28117 0.0 
-1.34372 -4.38367 0.0 
-1.47047 0.274883 0.0 
8.69891 -0.824176 0.0 
0.572752 0.0666296 0.0 
3.02391 1.56815 0.0 
0.546825 -0.0304958 0.0 
7.53034 -2.92118 0.0 
0.862614 -3.9233 0.0 
7.46433 -0.686568 0.0 
0.435695 0.0763326 0.0 
-0.291216 -0.600905 0.0 
0.958024 -0.00418663 0.0 
0.996359 0.00209859 0.0 
-3.04054 -1.35802 0.0 
7.86523 -1.29492 0.0 
0.824153 0.0339519 0.0 
-2.0843 -1.39076 0.0 
2.0242 4.23744 0.0 
6.10554 -1.09258 0.0 
0.070474 0.0518922 0.0 
0.253412 0.0852338 0.0 
4.90662 -3.37133 0.0 
5.3389 -1.37998 0.0 
8.18441 -5.4394 0.0 
4.74018 -1.11041 0.0 
-1.45792 -1.69797 0.0 
-0.658439 1.28669 0.0 
-1.47154 1.02941 0.0 
0.548603 -1.30682 0.0 
-4.28372 4.01846 0.0 
0.597388 -0.031556 0.0 
0.976283 3.91053 0.0 
-1.97604 3.44687 0.0 
-0.823498 -1.2495 0.0 
-0.676338 -0.322971 0.0 
0.0194499 -2.00073 0.0 
6.06625 2.2173 0.0 
4.77636 1.32682 0.0 
3.5286 -1.40716 0.0 
2.2348 6.10147 0.0 
4.3501 1.14584 0.0 
-0.374853 0.997283 0.0 
0.331239 -0.0398749 0.0 
2.92416 0.944765 0.0 
-1.08711 -0.79613 0.0 
-2.10643 0.811211 0.0 
10.0853 -2.20029 0.0 
9.19723 -1.4685 0.0 
-3.63493 -2.23583 0.0 
9.13289 -4.40814 0.0 
0.13646 -0.0401233 0.0 
3.73879 -1.49966 0.0 
1.16246 1.31001 0.0 
1.76621 -0.985528 0.0 
0.279409 0.0783782 0.0 
4.49882 0.813878 0.0 
0.0773295 0.0501322 0.0 
-1.7711 -2.7915 0.0 
2.21785 -2.83793 0.0 
1.9729 0.35934 0.0 
6.07917 0.172121 0.0 
-1.06801 -1.19434 0.0 
-0.742511 -0.787541 0.0 
4.55801 -0.996424 0.0 
10.0032 -3.21238 0.0 
4.23955 3.27 0.0 
4.4588 0.213546 0.0 
-3.41169 -1.50587 0.0 
0.374392 0.944982 0.0 
[...]
<PointData>
  <DataArray type = "Float64" Name="VitesseP1" NumberOfComponents="3" format="ascii">
1 0 0.0 
1.00186 0 0.0 
0.998352 0 0.0 
1 0 0.0 
0.999559 -0.00152617 0.0 
1.00626 -0.0060465 0.0 
0.983535 -0.00246503 0.0 
1.00113 -0.000854024 0.0 
1.00681 -0.00100689 0.0 
0.624765 0.0384571 0.0 
1.001 -0.00113984 0.0 
0.99967 -0.00349578 0.0 
0.0115226 0.000356869 0.0 
0 0 0.0 
0.944974 -0.00165415 0.0 
0.0875987 0.0054603 0.0 
1.00499 -0.00558281 0.0 
1.00176 -0.00206918 0.0 
1.00163 -0.00554346 0.0 
1.00009 -0.000177341 0.0 
0.149153 0.0100352 0.0 
0.999511 0.00133523 0.0 
0.0776986 0.00947334 0.0 
1.0008 -0.00587641 0.0 
1.25647e-08 -4.78583e-10 0.0 
0.998428 -0.00247184 0.0 
3.13015e-08 6.97046e-09 0.0 
0.845015 -0.00394077 0.0 
1.1393 -0.112888 0.0 
0.0182147 0.00170321 0.0 
1.00108 -0.000896819 0.0 
1.00105 -0.00206072 0.0 
1.01458 -0.0170834 0.0 
0.982485 0.00838299 0.0 
1.00262 0.00828499 0.0 
0.013213 0.0006248 0.0 
0.999236 -0.0118925 0.0 
1.00318 0.0187351 0.0 
1.00135 -0.00292123 0.0 
1.01656 0.0122407 0.0 
1.00068 -0.00145189 0.0 
1.005 -0.000471492 0.0 
1.00152 -0.00254142 0.0 
0.997255 0.000741723 0.0 
1.00124 -0.00105409 0.0 
1.00099 -0.000623908 0.0 
0.174176 0.017554 0.0 
0.998298 -0.00409344 0.0 
0.998383 0.00268758 0.0 
1.00091 -0.000467128 0.0 
1.02354 -0.013294 0.0 
0.411416 -0.0405233 0.0 
1.00542 -0.0036692 0.0 
1.00071 -0.00309383 0.0 
0.0308966 0.00188347 0.0 
0.999822 0.000427974 0.0 
1.00146 -0.00315906 0.0 
1.00102 -0.0106605 0.0 
1.0015 -0.00252587 0.0 
0.993604 0.00926538 0.0 
1.00027 0.00337132 0.0 
1.00106 -0.00199083 0.0 
-3.04436e-09 -6.38497e-10 0.0 
1.00074 -0.000779244 0.0 
1.00153 -0.00282252 0.0 
-0.000847487 0.000159341 0.0 
3.21524e-08 -4.24285e-10 0.0 
0 0 0.0 
0.999185 0.00109192 0.0 
1.0008 -0.000896834 0.0 
1.00153 -0.00299439 0.0 
0.980853 -0.00441029 0.0 
0.986097 -0.0086974 0.0 
1.01719 0.00501413 0.0 
0 0 0.0 
1.00217 -0.00167916 0.0 
1.00004 -0.00100906 0.0 
0.987492 0.00639399 0.0 
1.00162 -0.0016707 0.0 
1.00006 -0.000738755 0.0 
1.00097 -0.0026728 0.0 
0 0 0.0 
0.983624 -0.00198637 0.0 
1.0135 -0.000699524 0.0 
3.43234e-08 1.57379e-09 0.0 
1.0099 -0.00805555 0.0 
0.99992 -0.00181564 0.0 
1.00177 -0.000780375 0.0 
1.13229 -0.068975 0.0 
0.388438 0.0202817 0.0 
0.994757 -0.00940698 0.0 
1.00147 -0.00291982 0.0 
0.999864 -0.000788734 0.0 
1.00189 -0.00217971 0.0 
1.002 -0.0010143 0.0 
1.00128 -0.00237608 0.0 
0.116064 0.00046469 0.0 
0.996807 -0.0611907 0.0 
0.148782 0.00371041 0.0 
0.995508 -0.0118222 0.0 
-1.06346e-09 2.01508e-11 0.0 
1.00278 -0.00141251 0.0 
1.00667 -0.00303275 0.0 
1.00154 -0.00168866 0.0 
0.999219 -0.00173059 0.0 
1.00133 -0.00110597 0.0 
1.00036 -0.000210062 0.0 
0.595621 0.0345039 0.0 
0 0 0.0 
1.0019 -0.00155978 0.0 
1.00076 -0.00181026 0.0 
0 0 0.0 
1.00095 -0.00398833 0.0 
1.00552 0.0045038 0.0 
1.00297 -0.00554355 0.0 
0 0 0.0 
0.99534 -0.00379843 0.0 
1.00116 -0.00223739 0.0 
0.999133 0.0191794 0.0 
1.00529 -0.00445843 0.0 
1.00056 -0.00226935 0.0 
0 0 0.0 
1.00161 -0.00225588 0.0 
1.00065 -0.00240642 0.0 
0.994222 -0.169932 0.0 
1.0015 -0.00168445 0.0 
1.00071 -0.00245563 0.0 
0 0 0.0 
1.00148 -0.00224046 0.0 
1.00143 -0.00209328 0.0 
1.00432 -0.00143245 0.0 
1.00263 -0.00193096 0.0 
1.00122 -0.0024623 0.0 
0.906368 -0.00183524 0.0 
0.998451 0.00171475 0.0 
1.00314 -0.0106142 0.0 
0 0 0.0 
1.00039 -0.000560704 0.0 
0.997618 -0.000660238 0.0 
1.01634 0.0358377 0.0 
0 0 0.0 
0.0478288 0.000486151 0.0 
1.00354 0.00262828 0.0 
0.0611498 -0.00757301 0.0 
1.00237 -0.00190463 0.0 
0.998027 0.000296218 0.0 
1.00217 -0.00427149 0.0 
0.999776 0.00198083 0.0 
0.999397 0.00245418 0.0 
0.976326 -0.00286983 0.0 
1.00222 -0.00569663 0.0 
1.00245 -0.00136613 0.0 
0.1608 0.0106586 0.0 
0.991836 -0.0103655 0.0 
1.00489 0.00588564 0.0 
1.00898 0.0248473 0.0 
0.998651 0.00216403 0.0 
0.960453 -0.00718138 0.0 
1.00306 -0.00264862 0.0 
1.0077 -0.00311275 0.0 
7.9832e-09 -1.79299e-10 0.0 
0.998751 0.0237302 0.0 
1.00007 8.0691e-05 0.0 
0 0 0.0 
1.00044 -0.00143128 0.0 
0.0252272 0.00192155 0.0 
1.00009 -0.00424826 0.0 
1.00186 -0.00119365 0.0 
0.997786 -0.00192939 0.0 
1.00071 0.00107264 0.0 
1.00769 -0.00699693 0.0 
0 0 0.0 
0.251598 -0.0272173 0.0 
1.00019 0.000481587 0.0 
1.00017 -0.000539964 0.0 
0.999087 -0.00582768 0.0 
1.00176 -0.00461943 0.0 
0.999499 -8.00104e-06 0.0 
0.985304 0.00398258 0.0 
0.996711 -0.0178423 0.0 
0 0 0.0 
1.00114 -0.00366267 0.0 
1.00153 -0.00308556 0.0 
1.00218 -0.00125388 0.0 
0.995607 0.0050528 0.0 
0.996206 0.00236753 0.0 
0 0 0.0 
1.00089 -0.00215936 0.0 
0.993698 0.00142919 0.0 
1.00522 -0.00274656 0.0 
1.00106 1.4765e-06 0.0 
1.00092 -0.000715885 0.0 
1.00086 -0.0062066 0.0 
1.00227 -0.00179719 0.0 
1.02136 -0.00155469 0.0 
0.999981 0.000102996 0.0 
1.00143 0.00329044 0.0 
1.00103 -0.00171225 0.0 
0.994181 0.00420862 0.0 
1.00222 -0.00168088 0.0 
0.999791 0.000329763 0.0 
-0.0126172 0.00255919 0.0 
1.09451 0.0825277 0.0 
0.995511 -0.00752593 0.0 
1.0006 -0.00125983 0.0 
0.994817 0.0100131 0.0 
0.981665 -0.00388336 0.0 
1.00301 -0.00242746 0.0 
1.00226 -0.00216818 0.0 
1.0005 -0.000699175 0.0 
2.00469e-08 -9.77103e-10 0.0 
1.00052 -0.00543514 0.0 
1.00227 -0.00177248 0.0 
0.0169233 0.00110905 0.0 
0.989182 -0.00906531 0.0 
0 0 0.0 
0.999996 1.61463e-05 0.0 
1.00158 -0.00210473 0.0 
0 0 0.0 
0.998436 0.000754452 0.0 
0.999932 -0.000622517 0.0 
0.690517 0.504682 0.0 
0.999827 -0.00161037 0.0 
1.00544 -0.00109105 0.0 
0.998156 -0.00371471 0.0 
0.973162 -0.0215687 0.0 
0.998108 0 0.0 
0 0 0.0 
1.00184 -0.00168877 0.0 
0.993563 -0.000867443 0.0 
0 0 0.0 
1.00462 0.00107604 0.0 
1.00131 -0.00215217 0.0 
1.00097 -0.00173725 0.0 
0.858334 -0.0387614 0.0 
1.00184 -0.00122058 0.0 
1.00182 0.00201872 0.0 
1.7939e-08 8.22614e-10 0.0 
1.00103 -0.000995403 0.0 
0 0 0.0 
6.97938e-08 2.11062e-08 0.0 
1.00167 -0.00106804 0.0 
1.00073 0.0467207 0.0 
1.00069 -0.000901921 0.0 
1.00206 -0.00184267 0.0 
0 0 0.0 
1.0009 -0.00138553 0.0 
0.972807 -0.00137778 0.0 
0.696244 -0.0260697 0.0 
0.984418 0.0131726 0.0 
0.973815 -0.00167434 0.0 
0 0 0.0 
1.00114 -0.00210713 0.0 
1.00952 -0.0190075 0.0 
1.00089 -0.000802268 0.0 
0.00472413 -0.000570911 0.0 
1.00181 -0.00163267 0.0 
1.00022 -0.00070999 0.0 
0.996827 -0.000335393 0.0 
1.0063 0.00379644 0.0 
1.01198 -0.00579496 0.0 
0 0 0.0 
0.599997 0.0344169 0.0 
1.00036 -0.000177542 0.0 
1.00121 -0.00231288 0.0 
0.0423939 -0.00519599 0.0 
1.01191 -0.0354133 0.0 
1.00249 -0.000994168 0.0 
1.00307 -0.00481237 0.0 
0 0 0.0 
8.05955e-09 -5.28302e-10 0.0 
1.00579 -0.0134192 0.0 
1.0013 0.00476194 0.0 
0.00305917 -0.000410354 0.0 
1.00052 -0.00145225 0.0 
1.00204 -0.00180855 0.0 
0.0268071 0.00160147 0.0 
0.989865 0.0600556 0.0 
1.00017 -0.000619084 0.0 
1.00158 -0.000478028 0.0 
1.00122 -0.00219704 0.0 
1.01597 0.00758415 0.0 
1.01156 -0.0054773 0.0 
1.00045 -0.00259569 0.0 
0.997824 -0.00116021 0.0 
1.0004 -0.00124825 0.0 
0.999435 -0.000515641 0.0 
0.999856 -0.00326198 0.0 
0.553661 0.0405266 0.0 
1.00374 -0.00329196 0.0 
0.999372 -0.00359828 0.0 
0.998019 9.39973e-05 0.0 
1.00218 -0.000665144 0.0 
1.00279 -0.00414068 0.0 
1.00076 0.0216922 0.0 
1.00136 -0.00112778 0.0 
1.00107 -0.00266775 0.0 
1.00229 -0.00113133 0.0 
0.986279 0.0173224 0.0 
1.00253 -0.00129348 0.0 
1.00154 -0.00309047 0.0 
0 0 0.0 
1 -2.83825e-05 0.0 
1.00198 0.00135111 0.0 
0.996793 0.0106866 0.0 
1.00125 -0.00228767 0.0 
0.989055 -0.00153991 0.0 
1.00202 -0.00194521 0.0 
-2.70624e-08 4.29081e-09 0.0 
1.00417 0.00263298 0.0 
0 0 0.0 
0.952675 0.017627 0.0 
1.00147 -0.00452157 0.0 
1.01175 -0.000294815 0.0 
1.0183 0.0122766 0.0 
1.00633 -0.000280011 0.0 
1.002 -0.00168076 0.0 
1.00156 -0.00525833 0.0 
1.00129 -0.00122171 0.0 
0.99838 -0.000981331 0.0 
1.02157 -0.00498624 0.0 
0.994906 0.00276737 0.0 
0.999153 0.00116752 0.0 
1.00118 -0.00192103 0.0 
1.00178 -0.00246109 0.0 
1.00788 -0.0113325 0.0 
0 0 0.0 
1.00188 -0.00197623 0.0 
1.00106 -0.00095344 0.0 
0.996269 -0.00294316 0.0 
0.0281615 -0.00219499 0.0 
1.00147 -0.00289836 0.0 
1.01214 -0.0140784 0.0 
1.00186 -0.0009593 0.0 
1.00336 6.29593e-05 0.0 
1.00091 -0.000652803 0.0 
1.00111 -0.00194515 0.0 
0.999708 -0.000277234 0.0 
5.75998e-08 2.91062e-08 0.0 
1.00108 -0.000845869 0.0 
2.50436e-08 1.89623e-09 0.0 
1.00012 -0.000882559 0.0 
0.918726 -2.24015e-05 0.0 
0.0848863 0.00558522 0.0 
1.00139 -0.003116 0.0 
0.999003 -0.000446713 0.0 
1.00136 -0.00273991 0.0 
0.996545 0.0070498 0.0 
0.978754 -0.00353683 0.0 
1.14132 -0.155126 0.0 
1.22519e-08 5.54713e-10 0.0 
1.00172 -4.13575e-05 0.0 
1.10746 -0.0388875 0.0 
1.006 0.00245351 0.0 
0.998083 5.50854e-05 0.0 
1.00039 -0.00287486 0.0 
1.00141 -0.00540601 0.0 
0.999462 0.000585702 0.0 
0.0125301 0.000618733 0.0 
0.999312 -0.00461923 0.0 
1.00021 -0.000435814 0.0 
0.996155 0.00598905 0.0 
1.00871 -0.0026667 0.0 
0.00856396 -0.000986421 0.0 
1.00256 -0.00458609 0.0 
0 0 0.0 
1.00265 -0.00116314 0.0 
1.00082 -0.000702708 0.0 
1.00665 -0.00309998 0.0 
0 0 0.0 
0.99354 -0.0137843 0.0 
0 0 0.0 
0 0 0.0 
0.99933 0.000483298 0.0 
1.00197 -0.00181978 0.0 
0.000575708 -0.000101123 0.0 
0.998483 7.73492e-05 0.0 
1.00213 -0.000973553 0.0 
1.00215 -0.00149841 0.0 
0.797461 0.251789 0.0 
0.959774 0.0669729 0.0 
1.00185 -0.000845156 0.0 
1.00223 -0.00154624 0.0 
1.0025 -0.00036737 0.0 
1.00193 -0.00172145 0.0 
0.998563 -0.00101333 0.0 
1.00547 0.0106564 0.0 
0.999914 0.00711383 0.0 
1.00346 -0.00150757 0.0 
1.00004 0.000393644 0.0 
0.187803 0.0108491 0.0 
1.00304 -0.000303385 0.0 
1.00142 0.00187754 0.0 
0.997391 -0.00292333 0.0 
0.986128 -0.00178657 0.0 
1.00084 -0.00206211 0.0 
1.00053 -0.00166733 0.0 
1.00127 -0.00267612 0.0 
1.00114 -0.00179063 0.0 
1.00097 -0.000248977 0.0 
1.00142 -0.00307183 0.0 
1.00875 0.0163645 0.0 
0 0 0.0 
1.00193 -0.00554738 0.0 
0.994759 -0.00123978 0.0 
0.999195 0.00443005 0.0 
1.00408 -0.000999656 0.0 
1.00216 -0.00199325 0.0 
0.999823 8.21752e-05 0.0 
1.00292 -0.000492163 0.0 
0 0 0.0 
1.00133 -0.00172231 0.0 
1.01268 -0.00787037 0.0 
0.998914 6.0824e-05 0.0 
0 0 0.0 
1.00154 -0.00297299 0.0 
0 0 0.0 
0.999701 -0.000603144 0.0 
1.00111 -0.000874546 0.0 
0.998642 -0.0112088 0.0 
0.980078 -0.00719107 0.0 
0.996962 -0.00195472 0.0 
0.99402 -0.00411887 0.0 
1.00187 -0.00186782 0.0 
1.00342 -0.000439855 0.0 
1.00108 -0.00190296 0.0 
1.00089 -0.00293594 0.0 
0.999603 0.000362768 0.0 
1.0278 0.00562542 0.0 
0 0 0.0 
1.00243 0.00301022 0.0 
1.02221 0.015954 0.0 
0.986379 -0.00057848 0.0 
0.998555 0.0133854 0.0 
1.00019 -0.00127288 0.0 
0.0113996 -0.00166255 0.0 
1.00167 -0.00174363 0.0 
1.00806 -0.00870865 0.0 
1.00099 0.00168059 0.0 
0.995684 -0.000492348 0.0 
4.31341e-08 8.2696e-10 0.0 
1.00396 0.000634036 0.0 
1.00146 -0.0027549 0.0 
0 0 0.0 
1.00018 -0.00182487 0.0 
1.00285 0.00631138 0.0 
2.61671e-07 -9.20668e-09 0.0 
1.00027 -0.00237727 0.0 
1.0023 -0.00287351 0.0 
1.00033 -0.00151505 0.0 
0.0183746 0.000493202 0.0 
1.00792 0.00152302 0.0 
1.00224 -0.000425522 0.0 
1.00259 0.00331314 0.0 
1.01457 0.00160566 0.0 
1.00274 0.000586629 0.0 
1.00028 -0.00106036 0.0 
1.00278 -0.000216671 0.0 
1.00024 0.00403953 0.0 
1.0013 -0.00213499 0.0 
0.108163 0.0203384 0.0 
1.00102 -0.00107603 0.0 
0.283312 0.0217389 0.0 
1.00164 -0.000864258 0.0 
1.00014 0.00118876 0.0 
1.00017 0.00279564 0.0 
1.00127 -0.000442059 0.0 
1.00276 -0.000911734 0.0 
1.00005 0.0019258 0.0 
0.997225 0.00460804 0.0 
1.00195 -0.000333284 0.0 
1.02504 -0.00777562 0.0 
1.00014 -0.000800964 0.0 
1.00732 0.00237958 0.0 
0 0 0.0 
1.00115 -0.00230074 0.0 
1.00142 -0.00430952 0.0 
0.993131 0.00414225 0.0 
1.00553 0.022027 0.0 
1.00028 -0.00599293 0.0 
0.998963 -0.000362314 0.0 
1.00212 -0.00094051 0.0 
0.947954 -0.000407995 0.0 
0.963287 0.00174543 0.0 
8.78622e-09 1.79643e-10 0.0 
1.00283 0.00218266 0.0 
1.00143 -0.00277527 0.0 
1.00309 -0.00167875 0.0 
1.00421 -0.000882891 0.0 
0.995912 0.00376727 0.0 
0 0 0.0 
0.996809 -0.000485491 0.0 
0.999896 0.000498843 0.0 
1.00197 -0.00285999 0.0 
0 0 0.0 
0.999978 6.88738e-05 0.0 
1.00068 -0.000392825 0.0 
1.00205 -0.000970881 0.0 
0.999078 -0.000911397 0.0 
1.0012 -0.000733487 0.0 
1.00642 -0.00472621 0.0 
0.93099 0.00250677 0.0 
0.999975 -0.00287761 0.0 
1.00289 -0.000820592 0.0 
1.00189 -0.00331401 0.0 
0.998107 0.00012811 0.0 
1.00106 -0.000852303 0.0 
1.00151 -0.00157867 0.0 
1.00001 0.00446795 0.0 
1.00242 -0.00413938 0.0 
0.997882 1.09164e-05 0.0 
1.00166 -0.000980757 0.0 
1.00161 -0.00199548 0.0 
1.00009 0.00034567 0.0 
0.0902702 -0.00559293 0.0 
1.03507 -0.0446631 0.0 
1.00207 -0.000464093 0.0 
0.999924 0.00168368 0.0 
0.143568 -0.00817484 0.0 
1.00136 -0.0026018 0.0 
0.566517 -0.0550017 0.0 
1.00272 -0.00324273 0.0 
1.00004 -0.000147807 0.0 
0.997794 0.00331288 0.0 
1.00071 -0.00110122 0.0 
1.00251 -0.00415419 0.0 
0.00958847 0.000378009 0.0 
1.00061 -0.000281433 0.0 
1.0004 -0.00175535 0.0 
1.00236 -0.00119938 0.0 
0.997138 -0.00728118 0.0 
1.00204 -0.00696263 0.0 
1.00125 -0.00230993 0.0 
1.00719 -0.00198 0.0 
1.00142 -0.00258008 0.0 
0.999553 -0.0154042 0.0 
1.00247 0.00175587 0.0 
0.996476 0.000346027 0.0 
1.00074 0.00131663 0.0 
6.45263e-09 5.02684e-10 0.0 
0.998167 7.46708e-05 0.0 
8.19433e-08 3.83103e-08 0.0 
1.00022 -0.00121316 0.0 
0.992026 0.00498062 0.0 
1.00232 -0.00132427 0.0 
1.00256 -0.00127903 0.0 
1.00087 -0.00115948 0.0 
1.0022 -0.010541 0.0 
0 0 0.0 
0.997671 0.00012241 0.0 
0.994342 -0.000762821 0.0 
0.997401 0.00182686 0.0 
0.0903994 0.00134667 0.0 
0.0222273 0.0010965 0.0 
0 0 0.0 
1.00323 0.0011324 0.0 
0.99941 -0.00130405 0.0 
0.999883 -0.000494299 0.0 
1.00126 -0.00114526 0.0 
1.00361 -0.00216478 0.0 
1.0006 -0.00208496 0.0 
0.997853 2.99147e-05 0.0 
1.00056 -0.000889552 0.0 
0.999794 -0.000961083 0.0 
0.0518007 -0.00717043 0.0 
0.997803 0.000891092 0.0 
1.0068 -0.00109086 0.0 
1.01339 0.00482178 0.0 
1.00294 -0.00107016 0.0 
0.998976 -5.63706e-05 0.0 
1.00135 -0.00281702 0.0 
1.00216 -0.00357325 0.0 
1.00144 -0.00263088 0.0 
1.00193 0.00122984 0.0 
0.99934 -0.00179796 0.0 
1.0006 -0.00594382 0.0 
1.00326 -0.00184883 0.0 
1.00204 -0.00110738 0.0 
1.0015 -0.000972327 0.0 
1.00072 -0.0009614 0.0 
0.985835 -0.00564232 0.0 
1.0001 -0.00764721 0.0 
1.00468 -0.00093432 0.0 
1.00049 -0.00776666 0.0 
1.00423 -0.00718894 0.0 
1.00235 0.00406197 0.0 
1.00506 0.0156112 0.0 
1.01777 0.000319109 0.0 
1.00186 -0.00464243 0.0 
0.486493 0.186749 0.0 
1.00441 0.00390281 0.0 
1.00042 -0.000796215 0.0 
0.999127 -0.0075627 0.0 
1.0019 -0.000613319 0.0 
1.00001 0.000495851 0.0 
1.00185 -0.00249064 0.0 
1.00148 -0.000504759 0.0 
1.00186 -0.00174054 0.0 
1.00222 0.00260465 0.0 
1.0026 -0.00135858 0.0 
2.60591e-08 -3.2912e-09 0.0 
0.999172 -0.00264855 0.0 
0.99864 -0.00134774 0.0 
1.00345 -0.00706503 0.0 
0.999774 -0.000401939 0.0 
1.00058 0.000149241 0.0 
1.00305 -0.0011824 0.0 
1.00476 -0.00149028 0.0 
1.00194 -0.00323023 0.0 
1.00175 -0.00420554 0.0 
0.998337 -0.00151512 0.0 
0.999933 0.00112455 0.0 
1.00154 -0.00476868 0.0 
1.00487 0.000915689 0.0 
1.00061 -0.0017102 0.0 
1.00089 -0.00204295 0.0 
0.996722 -0.00371703 0.0 
1.00043 0.00601939 0.0 
1.00258 -0.00136703 0.0 
0 0 0.0 
1.0061 -0.00217018 0.0 
0.999662 -0.000769417 0.0 
1.00151 -0.00309859 0.0 
4.96333e-09 -8.77307e-11 0.0 
1.00043 -0.000363128 0.0 
1.00052 -0.001684 0.0 
0.998149 -0.00346372 0.0 
1.00096 -0.00217535 0.0 
0.999052 -0.00717018 0.0 
1.00127 -0.000740646 0.0 
1.00018 0.000585532 0.0 
0 0 0.0 
1.00248 -0.00157602 0.0 
1.0003 -0.00233533 0.0 
1.00099 -0.00149644 0.0 
1.00623 -0.00281197 0.0 
1.0009 -0.00488182 0.0 
0.999922 0.00023657 0.0 
1.00091 -0.000306591 0.0 
1.00142 -0.00331259 0.0 
1.00119 -0.00362313 0.0 
1.00748 -0.0332215 0.0 
0.995811 -0.00290489 0.0 
1.00101 -0.0023294 0.0 
1.0026 -7.25348e-05 0.0 
1.00119 -0.00010955 0.0 
0.926399 -0.00543488 0.0 
0 0 0.0 
1.00151 0.000740194 0.0 
0.999213 0.00187579 0.0 
0.98909 0.00281798 0.0 
1.00296 0.000354989 0.0 
1.00147 -0.00259798 0.0 
1.00185 -0.00146288 0.0 
0.999685 0.000140967 0.0 
1.00239 -0.000170101 0.0 
0.999293 0.00388244 0.0 
1.00181 -0.00159301 0.0 
0.999733 -0.000437233 0.0 
1.00444 -0.00382583 0.0 
0.999528 -0.000285351 0.0 
1.00158 -0.000399008 0.0 
0.0140686 0.00082594 0.0 
1.01446 -0.00370846 0.0 
1.00876 -0.0046192 0.0 
1.01309 -0.00838407 0.0 
1.00172 -0.000197498 0.0 
1.00415 -0.00814973 0.0 
1.00177 -0.00189188 0.0 
0 0 0.0 
1.00103 -0.00120912 0.0 
0.73275 -0.135908 0.0 
1.04157 -0.0462811 0.0 
0.997449 0.00576216 0.0 
1.00002 -3.93183e-05 0.0 
0.997751 -0.00512238 0.0 
0.990217 0.000411041 0.0 
1.00085 0.00975469 0.0 
1.0026 -0.000516578 0.0 
0.326871 0.0333022 0.0 
1.00149 0.00402659 0.0 
1.00163 -0.00117464 0.0 
1.00175 -0.00157521 0.0 
1.00146 -0.0027565 0.0 
0 0 0.0 
0.999271 -0.000314838 0.0 
1.00109 -0.000698476 0.0 
0.999338 0.0059091 0.0 
0.999734 -0.00232004 0.0 
1.00134 -0.000697875 0.0 
1.00008 -0.00145341 0.0 
1.00251 -0.00348376 0.0 
0.995511 -0.0130172 0.0 
1.00001 0.00357766 0.0 
0.99871 0.0031111 0.0 
0.998218 -0.00147058 0.0 
1.00099 -0.000535693 0.0 
1.00088 -0.0010344 0.0 
1.00154 0.00106575 0.0 
1.05032 -0.223253 0.0 
0.997237 -0.00663666 0.0 
0.998509 0.00571491 0.0 
1.00001 0.000338753 0.0 
1.00375 -0.00232399 0.0 
1.00192 0.0028795 0.0 
1.00188 -0.000400643 0.0 
0.999914 -0.000735077 0.0 
1.00797 0.000640224 0.0 
1.00423 -0.0267902 0.0 
1.00201 -0.00164146 0.0 
1.00136 -0.000946603 0.0 
0.997938 0.00142651 0.0 
0.991065 0.00130092 0.0 
1.0033 0.00230141 0.0 
1.00072 -0.00035535 0.0 
0.978653 -0.00330438 0.0 
1.00139 -0.000908358 0.0 
0.99901 -0.00284331 0.0 
1.00169 -0.000687268 0.0 
0.999998 -0.00118563 0.0 
1.00302 -3.91493e-06 0.0 
1.00091 -0.00307463 0.0 
1.00054 -0.000974793 0.0 
1.00067 0.000536859 0.0 
1.00084 -0.000441342 0.0 
1.00044 -0.000995983 0.0 
0.999872 0.00163152 0.0 
1.00302 0.00397137 0.0 
1.00348 0.000691882 0.0 
1.00138 -0.000493173 0.0 
1.00106 -0.000768826 0.0 
0.998404 0.0017218 0.0 
1.00295 0.00178972 0.0 
1.00464 0.000176061 0.0 
0.999988 -0.00014856 0.0 
1.00106 -0.000606589 0.0 
0.995587 -0.000737203 0.0 
0.999996 -2.47742e-05 0.0 
1.00011 -0.00117567 0.0 
1.00019 -0.000335498 0.0 
1.00003 -4.78879e-05 0.0 
1.00082 -0.00119601 0.0 
0.998014 2.70574e-05 0.0 
0 0 0.0 
1.00105 -0.00214897 0.0 
0.999307 0.002415 0.0 
0.999588 -0.000410583 0.0 
0.998747 -0.00112469 0.0 
1.00224 -0.00147555 0.0 
1.0001 -0.000109756 0.0 
1.00209 -0.00194839 0.0 
1.00195 -0.000860807 0.0 
0 0 0.0 
1.00665 0.00378138 0.0 
1.05032 -0.0724356 0.0 
1.00165 -0.00126291 0.0 
1.00108 -0.000824719 0.0 
0.997973 -0.000350883 0.0 
1.00001 0.000146958 0.0 
1.0001 -0.0108573 0.0 
1.00196 -0.00357071 0.0 
1.00062 -0.000384018 0.0 
0 0 0.0 
1.00142 -0.0010237 0.0 
0.998603 -0.00197436 0.0 
1.00242 0.00146704 0.0 
0.9933 0.00163029 0.0 
1.0069 -0.000540577 0.0 
1.0011 -0.000440671 0.0 
1.00006 -0.0031944 0.0 
0.997578 0.0549414 0.0 
0.996007 -0.00567508 0.0 
1.00082 -0.00187068 0.0 
1.00161 -0.00304574 0.0 
1.00171 0.00508063 0.0 
1.0022 -0.00145422 0.0 
1.00424 0.00204689 0.0 
1.00293 -0.00235588 0.0 
0.99929 -0.000229236 0.0 
1.00183 -0.00164602 0.0 
1.00266 -0.000216529 0.0 
1.00085 -0.00236244 0.0 
1.00104 -0.000345183 0.0 
1.00052 -7.4028e-05 0.0 
0.999732 -0.000705041 0.0 
1.00069 0.00077106 0.0 
1.00183 0.0327084 0.0 
1.00142 0.000476497 0.0 
-2.37416e-09 2.60859e-11 0.0 
1.00048 0.00178397 0.0 
1.00075 -0.00188977 0.0 
1.00368 0.005673 0.0 
1.00636 -0.0031054 0.0 
1.00003 -0.000477619 0.0 
1.00026 -0.00126385 0.0 
1.00027 -0.00306113 0.0 
0.999091 -0.00217773 0.0 
1.00386 -0.000581076 0.0 
0.99959 -0.000489139 0.0 
0.994533 0.0032741 0.0 
0.999659 -0.00356734 0.0 
0.999468 0.000269496 0.0 
1.00151 -0.00306501 0.0 
0.968583 -0.000782343 0.0 
1.00131 -0.00190855 0.0 
1.00037 -0.00201535 0.0 
1.00162 -0.000947753 0.0 
1.00094 -0.00099999 0.0 
0.99915 -0.000519809 0.0 
1.00154 -0.00430582 0.0 
0.999982 0.00136674 0.0 
0.997571 -0.000125421 0.0 
0.999036 -0.00398039 0.0 
0.180656 -0.016429 0.0 
1.00256 -0.00110645 0.0 
1.00137 -0.000145793 0.0 
0.997316 0.00141847 0.0 
0.998923 -0.00215073 0.0 
0.99886 -0.000141637 0.0 
1.00376 0.000993314 0.0 
1.00007 -0.000367108 0.0 
1.0005 -0.00192328 0.0 
0.997964 3.65299e-05 0.0 
0.0275262 -0.0036281 0.0 