<VTKFile type="UnstructuredGrid" version="0.1" byte_order="LittleEndian">
  <UnstructuredGrid>
    <Piece NumberOfPoints="23679" NumberOfCells="47236">
      <Points>
        <DataArray type = "Float64" NumberOfComponents="3" format="ascii">
-5 -7 0.0 
15.5 -7 0.0 
15.5 7 0.0 
-5 7 0.0 
7.63511 2.91639 0.0 
1.87049 1.67084 0.0 
-0.605974 -0.287769 0.0 
2.37337 -3.10656 0.0 
0.929906 2.48659 0.0 
0.824948 -0.0289232 0.0 
0.579762 -2.6174 0.0 
2.75639 -0.320238 0.0 
0.600589 -0.0279367 0.0 
0.809974 0.0358912 0.0 
4.52511 -0.0925724 0.0 
0.692729 -0.023898 0.0 
2.14598 1.71184 0.0 
4.47114 -0.725108 0.0 
2.94972 0.812693 0.0 
-2.51884 -5.20772 0.0 
0.933054 -0.00978829 0.0 
-3.39004 -0.0550254 0.0 
0.209319 0.0741243 0.0 
-0.14562 -1.1416 0.0 
0.16355 -0.0415655 0.0 
4.37129 -0.146188 0.0 
0.125896 0.0617342 0.0 
2.89507 -0.00321849 0.0 
0.117818 -0.0547525 0.0 
0.74577 -0.0190427 0.0 
1.20907 -2.59566 0.0 
7.05945 1.36908 0.0 
1.18414 0.837326 0.0 
-0.664239 0.00933663 0.0 
0.988285 -0.635056 0.0 
0.79931 -0.0154644 0.0 
-0.169857 -0.752454 0.0 
-0.535193 0.781979 0.0 
4.50646 0.336854 0.0 
0.675201 -0.447934 0.0 
4.33956 3.92927 0.0 
7.20401 -0.547152 0.0 
5.06202 0.761268 0.0 
-1.83764 -0.830466 0.0 
2.97447 -2.59497 0.0 
1.77447 -4.2029 0.0 
0.203756 0.0741702 0.0 
2.3905 -0.208726 0.0 
-2.38226 0.0491773 0.0 
1.57579 -4.90006 0.0 
0.892623 0.876713 0.0 
0.619187 0.0692661 0.0 
1.81524 2.22933 0.0 
3.20393 -0.375619 0.0 
0.560088 -0.0307549 0.0 
-4.00064 -1.06423 0.0 
4.1637 1.41296 0.0 
2.03909 0.577378 0.0 
3.97155 -0.451817 0.0 
-1.0713 0.305678 0.0 
1.24518 -0.853569 0.0 
5.30713 0.379083 0.0 
0.993214 0.00283989 0.0 
0.513972 -3.72515 0.0 
4.25372 1.90694 0.0 
0.87556 0.025233 0.0 
0.401296 0.0780688 0.0 
0.44761 -0.0359067 0.0 
-3.06259 -0.640688 0.0 
0.58449 -3.29242 0.0 
4.47137 0.702541 0.0 
-0.523713 -0.272593 0.0 
-0.477755 -0.422453 0.0 
0.570246 -0.533547 0.0 
0.538433 -0.0310055 0.0 
5.2741 -1.01059 0.0 
2.21102 -1.39328 0.0 
1.30783 -0.274121 0.0 
4.18709 -1.48886 0.0 
-1.19726 -3.28581 0.0 
-0.0359698 -1.75399 0.0 
0.617039 -0.0263973 0.0 
5.83653 0.150199 0.0 
5.57946 0.224905 0.0 
0.377841 -0.038928 0.0 
1.38254 1.36675 0.0 
2.58372 -1.06479 0.0 
4.70454 -3.6075 0.0 
0.551438 0.113173 0.0 
0.532912 -0.0384617 0.0 
-0.392031 -0.729994 0.0 
4.38556 1.53498 0.0 
-1.34387 -2.96962 0.0 
4.73748 -0.295427 0.0 
5.13252 -2.84762 0.0 
5.34987 1.08334 0.0 
0.326684 0.0802051 0.0 
1.0681 0.191919 0.0 
0.292684 0.0800176 0.0 
-0.288073 -0.693253 0.0 
0.850052 0.029488 0.0 
7.72674 -2.22661 0.0 
5.73402 0.253504 0.0 
3.27298 3.73283 0.0 
2.31769 -0.889324 0.0 
3.24694 -2.57408 0.0 
-0.795775 -5.8192 0.0 
0.667923 -0.0361302 0.0 
0.835769 0.0314682 0.0 
4.69839 -1.50939 0.0 
4.91709 3.01814 0.0 
0.151849 -0.0409087 0.0 
3.55148 0.264681 0.0 
0.842117 -0.794382 0.0 
2.65591 1.43349 0.0 
0.932811 0.0144733 0.0 
-0.764917 -0.926758 0.0 
3.60734 -0.915315 0.0 
-0.605852 0.649115 0.0 
5.76621 -0.263827 0.0 
3.08877 -0.924843 0.0 
0.899825 -0.00795866 0.0 
6.80384 1.26814 0.0 
3.19847 -0.826277 0.0 
0.0166341 -0.0962489 0.0 
3.983 -1.51439 0.0 
5.81155 1.05052 0.0 
0.403773 -0.0376754 0.0 
4.06583 -0.737319 0.0 
3.85222 3.16404 0.0 
7.27994 -0.917065 0.0 
7.01199 -1.44503 0.0 
5.44634 0.7472 0.0 
5.43495 -0.0201864 0.0 
1.51213 -0.834065 0.0 
1.97076 0.806002 0.0 
0.634487 0.0595385 0.0 
-0.572414 -4.29099 0.0 
1.8826 -0.733417 0.0 
0.759381 -0.180619 0.0 
0.40132 0.0778474 0.0 
0.23454 -0.0430222 0.0 
-0.802406 2.95957 0.0 
0.691963 0.0549995 0.0 
5.47277 -0.740356 0.0 
14.1487 4.94071 0.0 
0.0736498 -1.30758 0.0 
-3.24273 0.882011 0.0 
1.37104 -0.876055 0.0 
-0.483647 -0.194829 0.0 
2.83565 1.06937 0.0 
5.52957 -1.21731 0.0 
0.947149 -0.00912481 0.0 
-0.408161 -0.611461 0.0 
-0.824132 1.91234 0.0 
-0.28194 0.734853 0.0 
-2.58987 -0.112571 0.0 
5.39673 0.0810302 0.0 
0.347037 -1.34491 0.0 
1.28521 2.08402 0.0 
0.220369 -0.0424097 0.0 
-0.490215 0.575937 0.0 
1.64934 -1.3049 0.0 
0.153085 0.0664047 0.0 
-0.251695 -2.55503 0.0 
0.826156 -0.0139773 0.0 
3.35673 0.186652 0.0 
4.62807 -2.39408 0.0 
-1.05781 -1.39579 0.0 
-2.54531 4.21509 0.0 
1.60336 1.51116 0.0 
0.713093 0.0498095 0.0 
0.643534 0.0642145 0.0 
-3.64101 4.81173 0.0 
-1.26922 -3.94313 0.0 
-0.342655 -1.12768 0.0 
3.30326 0.952175 0.0 
5.64264 0.331249 0.0 
1.34559 -0.214642 0.0 
1.60527 0.321358 0.0 
0.328683 -0.0401423 0.0 
3.81728 0.37784 0.0 
4.37562 0.758715 0.0 
5.5831 -1.82905 0.0 
-1.49688 0.101849 0.0 
-1.70027 -0.343758 0.0 
0.937041 0.0136815 0.0 
5.60623 1.42522 0.0 
-1.23169 -0.42816 0.0 
1.69627 2.52442 0.0 
1.36245 -1.5082 0.0 
1.25107 -3.80948 0.0 
2.74679 0.528168 0.0 
5.36614 -1.19177 0.0 
0.605019 1.16677 0.0 
-4.58423 -1.62108 0.0 
-2.02651 2.34708 0.0 
3.99339 3.63024 0.0 
-1.36142 -0.0750085 0.0 
5.19766 -0.482867 0.0 
-3.85513 -1.43107 0.0 
0.966422 0.00919783 0.0 
0.247834 0.0870881 0.0 
-0.465649 -0.817954 0.0 
4.29025 4.26714 0.0 
1.18312 -0.431176 0.0 
9.21986 0.0258833 0.0 
5.39136 -0.625475 0.0 
5.56604 0.611257 0.0 
1.96388 -1.61685 0.0 
0.196106 -0.0423443 0.0 
2.93186 0.364486 0.0 
5.88518 0.822328 0.0 
0.824138 -0.0139123 0.0 
-0.47228 -0.526413 0.0 
0.477118 -0.0338206 0.0 
-4.64673 -2.62107 0.0 
4.10712 -0.887195 0.0 
0.710355 0.0501717 0.0 
1.64936 -0.864917 0.0 
-1.61346 -3.22424 0.0 
0.0092848 0.0284272 0.0 
7.26993 2.53793 0.0 
1.1048 2.83071 0.0 
10.1588 1.30502 0.0 
-0.263385 -0.26391 0.0 
13.7005 7 0.0 
0.52333 0.0703707 0.0 
4.58595 -1.29531 0.0 
5.62067 -0.188463 0.0 
0.799738 -0.0147854 0.0 
11.9625 -2.20661 0.0 
5.40435 0.619553 0.0 
3.28687 -1.45096 0.0 
0.458966 0.0872446 0.0 
5.51568 -0.596029 0.0 
-1.63011 3.37507 0.0 
0.293181 -0.0414659 0.0 
0.865321 -2.71027 0.0 
0.786038 -0.0158333 0.0 
0.0736186 0.0492692 0.0 
4.13993 -2.76136 0.0 
0.881421 -0.0921271 0.0 
0.266317 -3.38104 0.0 
4.88629 -0.852705 0.0 
0.437008 0.076424 0.0 
3.8816 4.12562 0.0 
7.92184 -0.0908268 0.0 
0.176354 -0.0480078 0.0 
-0.662142 0.143724 0.0 
6.26015 0.128606 0.0 
0.915518 -0.00670685 0.0 
3.62021 -1.04763 0.0 
1.34876 0.720027 0.0 
0.982357 -3.49725 0.0 
0.663709 0.0566737 0.0 
5.3066 -0.705713 0.0 
-0.944514 -3.61431 0.0 
1.79294 -0.661223 0.0 
-0.342215 2.27409 0.0 
5.88842 -0.367403 0.0 
0.211839 -0.0420107 0.0 
0.654413 -0.0369233 0.0 
3.68564 6.54289 0.0 
5.00064 1.8515 0.0 
0.69027 0.0546811 0.0 
1.12166 0.441142 0.0 
7.31715 -3.60167 0.0 
2.79958 1.64327 0.0 
0.433465 0.0764782 0.0 
0.584196 0.0652607 0.0 
0.0636322 -0.695974 0.0 
-1.81416 1.63551 0.0 
0.74075 0.0465749 0.0 
2.69342 -1.49048 0.0 
4.86008 -1.00044 0.0 
0.822907 -0.0142337 0.0 
-0.164664 0.307939 0.0 
4.48127 5.51069 0.0 
4.4895 -4.79993 0.0 
5.37438 1.55243 0.0 
0.123991 1.28664 0.0 
6.41782 -0.499678 0.0 
3.16721 -0.70129 0.0 
1.99155 -0.729552 0.0 
4.69954 4.16905 0.0 
-1.91695 -2.36563 0.0 
8.09216 1.16816 0.0 
0.242046 0.0802658 0.0 
2.34355 2.47663 0.0 
2.72841 -0.285972 0.0 
13.5916 6.05949 0.0 
1.64671 4.40597 0.0 
3.03209 1.84093 0.0 
-0.498111 0.662759 0.0 
0.765551 -2.10462 0.0 
5.25655 0.61914 0.0 
6.04759 -2.75505 0.0 
1.12471 -0.237361 0.0 
6.40695 -2.14103 0.0 
4.37139 0.883681 0.0 
0.240004 -0.042139 0.0 
-4.55867 -4.42627 0.0 
-1.09286 3.96435 0.0 
-1.07351 0.572111 0.0 
3.73338 -0.828021 0.0 
-0.766762 -0.403459 0.0 
0.402752 -1.68281 0.0 
0.925255 0.0164317 0.0 
0.88786 -0.943606 0.0 
0.505244 -0.025873 0.0 
-0.299243 0.0389379 0.0 
3.36416 0.723434 0.0 
0.636773 1.7916 0.0 
0.0435288 1.09333 0.0 
0.74756 2.65039 0.0 
5.12608 -1.02106 0.0 
3.05399 0.794214 0.0 
3.3685 -2.29577 0.0 
9.40833 4.18552 0.0 
0.726496 1.10014 0.0 
-1.43587 -0.265452 0.0 
1.53809 -0.965095 0.0 
3.65342 -1.2467 0.0 
3.58193 2.86195 0.0 
1.58453 1.05649 0.0 
0.69113 -0.0216886 0.0 
4.67304 -0.737386 0.0 
2.403 -2.53676 0.0 
-0.883615 -1.03632 0.0 
0.570985 0.067201 0.0 
4.5489 1.01634 0.0 
1.30188 0.95494 0.0 
4.78484 -2.98767 0.0 
0.647276 3.74647 0.0 
1.64058 -1.98991 0.0 
5.60464 1.66025 0.0 
-2.46641 -2.76999 0.0 
0.0236771 0.0292808 0.0 
1.83737 -2.85625 0.0 
0.712397 -0.0207427 0.0 
-0.929233 -3.15638 0.0 
5.62429 -0.0217768 0.0 
0.696715 -0.0236006 0.0 
4.31467 0.462465 0.0 
1.90518 -1.00498 0.0 
3.8123 -0.317197 0.0 
-1.40698 0.43063 0.0 
8.12686 0.163945 0.0 
0.0912505 -0.0517404 0.0 
0.360402 0.0788181 0.0 
0.766222 5.08386 0.0 
0.543306 0.227627 0.0 
0.768677 -0.887089 0.0 
13.8069 6.49329 0.0 
3.14545 -0.527242 0.0 
3.00213 0.685174 0.0 
-3.26851 -1.17579 0.0 
0.326091 -0.0407782 0.0 
-0.350969 -1.28117 0.0 
-1.34372 -4.38367 0.0 
-1.47047 0.274883 0.0 
8.69891 -0.824176 0.0 
0.572752 0.0666296 0.0 
3.02391 1.56815 0.0 
0.546825 -0.0304958 0.0 
7.53034 -2.92118 0.0 
0.862614 -3.9233 0.0 
7.46433 -0.686568 0.0 
0.435695 0.0763326 0.0 
-0.291216 -0.600905 0.0 
0.958024 -0.00418663 0.0 
0.996359 0.00209859 0.0 
-3.04054 -1.35802 0.0 
7.86523 -1.29492 0.0 
0.824153 0.0339519 0.0 
-2.0843 -1.39076 0.0 
2.0242 4.23744 0.0 
6.10554 -1.09258 0.0 
0.070474 0.0518922 0.0 
0.253412 0.0852338 0.0 
4.90662 -3.37133 0.0 
5.3389 -1.37998 0.0 
8.18441 -5.4394 0.0 
4.74018 -1.11041 0.0 
-1.45792 -1.69797 0.0 
-0.658439 1.28669 0.0 
-1.47154 1.02941 0.0 
0.548603 -1.30682 0.0 
-4.28372 4.01846 0.0 
0.597388 -0.031556 0.0 
0.976283 3.91053 0.0 
-1.97604 3.44687 0.0 
-0.823498 -1.2495 0.0 
-0.676338 -0.322971 0.0 
0.0194499 -2.00073 0.0 
6.06625 2.2173 0.0 
4.77636 1.32682 0.0 
3.5286 -1.40716 0.0 
2.2348 6.10147 0.0 
4.3501 1.14584 0.0 
-0.374853 0.997283 0.0 
0.331239 -0.0398749 0.0 
2.92416 0.944765 0.0 
-1.08711 -0.79613 0.0 
-2.10643 0.811211 0.0 
10.0853 -2.20029 0.0 
9.19723 -1.4685 0.0 
-3.63493 -2.23583 0.0 
9.13289 -4.40814 0.0 
0.13646 -0.0401233 0.0 
3.73879 -1.49966 0.0 
1.16246 1.31001 0.0 
1.76621 -0.985528 0.0 
0.279409 0.0783782 0.0 
4.49882 0.813878 0.0 
0.0773295 0.0501322 0.0 
-1.7711 -2.7915 0.0 
2.21785 -2.83793 0.0 
1.9729 0.35934 0.0 
6.07917 0.172121 0.0 
-1.06801 -1.19434 0.0 
-0.742511 -0.787541 0.0 
4.55801 -0.996424 0.0 
10.0032 -3.21238 0.0 
4.23955 3.27 0.0 
4.4588 0.213546 0.0 
-3.41169 -1.50587 0.0 
0.374392 0.944982 0.0 
[...]
<PointData>
  <DataArray type = "Float64" Name="VitesseP1" NumberOfComponents="3" format="ascii">
1 0 0.0 
1.00264 0 0.0 
0.997854 0 0.0 
1 0 0.0 
0.999951 -0.00100241 0.0 
1.00627 -0.00602803 0.0 
0.983529 -0.00244556 0.0 
1.00112 -0.000854215 0.0 
1.00681 -0.000999114 0.0 
0.624797 0.0384586 0.0 
1.00099 -0.00113833 0.0 
0.999628 -0.00346009 0.0 
0.0115344 0.00035719 0.0 
0 0 0.0 
0.945246 -0.00157769 0.0 
0.0876268 0.00546181 0.0 
1.005 -0.00556075 0.0 
1.00165 -0.00202866 0.0 
1.00165 -0.00549894 0.0 
1.00009 -0.000177179 0.0 
0.149177 0.010037 0.0 
0.999511 0.00133721 0.0 
0.0776951 0.00947292 0.0 
1.00079 -0.00586726 0.0 
1.25668e-08 -4.78352e-10 0.0 
0.998487 -0.0023927 0.0 
3.13001e-08 6.97049e-09 0.0 
0.84495 -0.00390621 0.0 
1.13925 -0.112877 0.0 
0.0182193 0.00170363 0.0 
1.00108 -0.000895192 0.0 
1.00148 -0.00137422 0.0 
1.0146 -0.0170696 0.0 
0.982484 0.00840336 0.0 
1.00259 0.00829364 0.0 
0.0132157 0.000624932 0.0 
0.999221 -0.0118786 0.0 
1.00319 0.0187494 0.0 
1.0014 -0.00281827 0.0 
1.01653 0.0122473 0.0 
1.0007 -0.00143536 0.0 
1.00498 7.40574e-05 0.0 
1.00161 -0.0024379 0.0 
0.997253 0.000747782 0.0 
1.00122 -0.00105283 0.0 
1.00099 -0.00062582 0.0 
0.174169 0.0175533 0.0 
0.99826 -0.00406252 0.0 
0.998383 0.00269238 0.0 
1.00091 -0.000468631 0.0 
1.02356 -0.0132818 0.0 
0.411449 -0.040521 0.0 
1.00544 -0.0036539 0.0 
1.00065 -0.00305089 0.0 
0.030952 0.00188657 0.0 
0.999822 0.000428851 0.0 
1.0015 -0.00309741 0.0 
1.00104 -0.0106345 0.0 
1.00142 -0.00247217 0.0 
0.993605 0.00927852 0.0 
1.00025 0.00338119 0.0 
1.00116 -0.00183337 0.0 
-3.04476e-09 -6.38343e-10 0.0 
1.00074 -0.000779664 0.0 
1.00157 -0.00277052 0.0 
-0.000848581 0.000159537 0.0 
3.22176e-08 -4.25961e-10 0.0 
0 0 0.0 
0.999184 0.00109443 0.0 
1.0008 -0.000896769 0.0 
1.00158 -0.00290744 0.0 
0.980846 -0.00438896 0.0 
0.986087 -0.00867806 0.0 
1.01717 0.00502199 0.0 
0 0 0.0 
1.00203 -0.00161793 0.0 
1.00002 -0.000996078 0.0 
0.987468 0.00640838 0.0 
1.00156 -0.00166481 0.0 
1.00006 -0.000737581 0.0 
1.00096 -0.00266774 0.0 
0 0 0.0 
0.983082 -0.00180271 0.0 
1.01366 -0.000491789 0.0 
3.42881e-08 1.57203e-09 0.0 
1.00991 -0.00804127 0.0 
0.999886 -0.00179514 0.0 
1.00176 -0.000792317 0.0 
1.13231 -0.0689528 0.0 
0.388826 0.0202583 0.0 
0.994745 -0.00939266 0.0 
1.00152 -0.00285909 0.0 
0.999862 -0.000787091 0.0 
1.00176 -0.00209723 0.0 
1.00198 -0.000994054 0.0 
1.00138 -0.00228366 0.0 
0.116062 0.000464613 0.0 
0.99683 -0.0611789 0.0 
0.148778 0.00371028 0.0 
0.995494 -0.0118071 0.0 
-1.06682e-09 2.07036e-11 0.0 
1.00278 -0.000937929 0.0 
1.0068 -0.00276943 0.0 
1.00156 -0.00167023 0.0 
0.999187 -0.00171041 0.0 
1.0013 -0.00110683 0.0 
1.00036 -0.000210233 0.0 
0.595684 0.0345011 0.0 
0 0 0.0 
1.00182 -0.00155638 0.0 
1.0008 -0.00179835 0.0 
0 0 0.0 
1.00098 -0.0039208 0.0 
1.0055 0.00451174 0.0 
1.00299 -0.00551101 0.0 
0 0 0.0 
0.995333 -0.00378782 0.0 
1.0011 -0.00220626 0.0 
0.999141 0.0191949 0.0 
1.00525 -0.00435876 0.0 
1.00052 -0.00224155 0.0 
0 0 0.0 
1.002 -0.00174503 0.0 
1.0006 -0.00237522 0.0 
0.994168 -0.169889 0.0 
1.00144 -0.00167612 0.0 
1.00083 -0.00230811 0.0 
0 0 0.0 
1.0014 -0.00220106 0.0 
1.00146 -0.00206493 0.0 
1.00413 -0.000670986 0.0 
1.00251 -0.00142914 0.0 
1.00133 -0.0023313 0.0 
0.906155 -0.00170917 0.0 
0.998427 0.00172697 0.0 
1.00316 -0.0105904 0.0 
0 0 0.0 
1.00039 -0.000560715 0.0 
0.99759 -0.000643215 0.0 
1.01631 0.035839 0.0 
0 0 0.0 
0.0478372 0.00048625 0.0 
1.00355 0.00263167 0.0 
0.0611397 -0.00757154 0.0 
1.00219 -0.00179154 0.0 
0.997632 -0.00014716 0.0 
1.00216 -0.00426404 0.0 
0.999776 0.00198295 0.0 
0.999375 0.00246488 0.0 
0.97632 -0.00284622 0.0 
1.00225 -0.00565714 0.0 
1.00233 -0.00127472 0.0 
0.160827 0.0106606 0.0 
0.991824 -0.0103493 0.0 
1.00489 0.00589176 0.0 
1.009 0.0248632 0.0 
0.998651 0.00216802 0.0 
0.959718 -0.00703638 0.0 
1.00305 -0.00264198 0.0 
1.00772 -0.00310165 0.0 
7.98474e-09 -1.7909e-10 0.0 
0.99876 0.0237477 0.0 
1.00004 9.04556e-05 0.0 
0 0 0.0 
1.00043 -0.00142899 0.0 
0.0252321 0.00192193 0.0 
1.00012 -0.00418674 0.0 
1.00182 -0.00120845 0.0 
0.997781 -0.0019228 0.0 
1.00071 0.00107347 0.0 
1.00771 -0.00698093 0.0 
0 0 0.0 
0.251608 -0.0272166 0.0 
1.00019 0.000481862 0.0 
1.00017 -0.000539451 0.0 
0.999076 -0.00581808 0.0 
1.00179 -0.00456777 0.0 
0.999677 0.000234163 0.0 
0.985279 0.00399828 0.0 
0.996733 -0.0178231 0.0 
0 0 0.0 
1.00118 -0.00358733 0.0 
1.00159 -0.00300299 0.0 
1.0021 -0.00115367 0.0 
0.995607 0.00506234 0.0 
0.996205 0.00237528 0.0 
0 0 0.0 
1.00099 -0.0020873 0.0 
0.993696 0.00143997 0.0 
1.00524 -0.00273373 0.0 
1.00104 8.40037e-06 0.0 
1.00092 -0.00071693 0.0 
1.00088 -0.00616497 0.0 
1.00214 -0.00173254 0.0 
1.02137 -0.00154376 0.0 
0.999981 0.000103256 0.0 
1.00143 0.00329342 0.0 
1.00105 -0.00168826 0.0 
0.99418 0.00421917 0.0 
1.00204 -0.00160082 0.0 
0.99979 0.000330687 0.0 
-0.0126204 0.00255981 0.0 
1.09453 0.0825298 0.0 
0.995501 -0.00751299 0.0 
1.00063 -0.00124598 0.0 
0.994793 0.0100243 0.0 
0.9749 -0.00104303 0.0 
1.0028 -0.00231968 0.0 
1.0024 -0.00200511 0.0 
1.00048 -0.00068988 0.0 
2.00504e-08 -9.7707e-10 0.0 
1.00054 -0.00538766 0.0 
1.00245 -0.00157268 0.0 
0.0169267 0.00110927 0.0 
0.989171 -0.00904788 0.0 
0 0 0.0 
0.999996 1.62919e-05 0.0 
1.0015 -0.00207331 0.0 
0 0 0.0 
0.998411 0.000767721 0.0 
0.99993 -0.000621228 0.0 
0.690605 0.504775 0.0 
1.0002 -0.001177 0.0 
1.00544 -0.00108339 0.0 
1.00196 -0.00155055 0.0 
0.973148 -0.021541 0.0 
0.997874 0 0.0 
0 0 0.0 
1.00175 -0.00167903 0.0 
0.993687 -0.00080854 0.0 
0 0 0.0 
1.0041 -0.000928248 0.0 
1.00143 -0.00201425 0.0 
1.00092 -0.00172039 0.0 
0.85798 -0.0387666 0.0 
1.00165 -0.00112844 0.0 
1.00182 0.00202073 0.0 
1.79207e-08 8.21885e-10 0.0 
1.00102 -0.000994182 0.0 
0 0 0.0 
6.97919e-08 2.1106e-08 0.0 
1.00165 -0.00108443 0.0 
1.0007 0.0467233 0.0 
1.00068 -0.000901753 0.0 
1.00193 -0.00180441 0.0 
0 0 0.0 
1.00092 -0.00136745 0.0 
0.971261 -0.00052381 0.0 
0.696276 -0.0260702 0.0 
0.984419 0.0131927 0.0 
0.973141 -0.00130155 0.0 
0 0 0.0 
1.00109 -0.00208007 0.0 
1.00954 -0.018992 0.0 
1.00089 -0.000802738 0.0 
0.00472345 -0.000570826 0.0 
1.00164 -0.00156826 0.0 
1.00022 -0.000709244 0.0 
0.996799 -0.000318661 0.0 
1.00631 0.00380196 0.0 
1.01183 -0.00561457 0.0 
0 0 0.0 
0.600064 0.0344132 0.0 
1.00037 -0.000176001 0.0 
1.00128 -0.00226698 0.0 
0.0423861 -0.0051949 0.0 
1.01193 -0.0354001 0.0 
1.00236 -0.000612866 0.0 
1.00309 -0.00477929 0.0 
0 0 0.0 
8.06325e-09 -5.28554e-10 0.0 
1.00577 -0.013406 0.0 
1.0013 0.00476663 0.0 
0.00305761 -0.00041014 0.0 
1.00049 -0.00143743 0.0 
1.00193 -0.00177957 0.0 
0.0268123 0.00160178 0.0 
0.989882 0.0600836 0.0 
1.00019 -0.000613724 0.0 
1.00159 -0.000493432 0.0 
1.00133 -0.00213652 0.0 
1.01598 0.00759442 0.0 
1.01132 -0.00518646 0.0 
1.0004 -0.00256167 0.0 
0.997794 -0.00114186 0.0 
1.00043 -0.00124359 0.0 
0.999433 -0.000513311 0.0 
1.00082 -0.00164069 0.0 
0.55365 0.0405259 0.0 
1.00375 -0.0032722 0.0 
0.99933 -0.00356256 0.0 
0.99782 -0.000103431 0.0 
1.00218 -0.000659447 0.0 
1.00282 -0.00410595 0.0 
1.00077 0.0217083 0.0 
1.00135 -0.00112467 0.0 
1.00118 -0.00254134 0.0 
1.00226 -0.000906769 0.0 
0.986257 0.0173336 0.0 
1.00249 -0.00094797 0.0 
1.00159 -0.00301227 0.0 
0 0 0.0 
1 -2.83235e-05 0.0 
1.00198 0.00135287 0.0 
0.996796 0.0106987 0.0 
1.00119 -0.00225305 0.0 
0.989049 -0.00152411 0.0 
1.00201 -0.0019403 0.0 
-2.70745e-08 4.29286e-09 0.0 
1.00415 0.00264077 0.0 
0 0 0.0 
0.952676 0.0176615 0.0 
1.0015 -0.00446536 0.0 
1.01176 -0.000286021 0.0 
1.01831 0.0122882 0.0 
1.00634 -0.000273403 0.0 
1.00187 -0.0016407 0.0 
1.00159 -0.00521107 0.0 
1.00126 -0.00122081 0.0 
0.998974 -0.000540284 0.0 
1.02158 -0.00497493 0.0 
0.994905 0.00277704 0.0 
0.999129 0.001179 0.0 
1.00113 -0.00190077 0.0 
1.0018 -0.00243133 0.0 
1.00789 -0.0113151 0.0 
0 0 0.0 
1.00175 -0.00193462 0.0 
1.00105 -0.000950375 0.0 
0.996263 -0.00293389 0.0 
0.0281778 -0.00219614 0.0 
1.00153 -0.00282012 0.0 
1.01216 -0.0140638 0.0 
1.00184 -0.000970094 0.0 
1.00336 6.70455e-05 0.0 
1.00089 -0.000647705 0.0 
1.00123 -0.00188024 0.0 
0.999707 -0.000275833 0.0 
5.7599e-08 2.91066e-08 0.0 
1.00107 -0.000844651 0.0 
2.50517e-08 1.8968e-09 0.0 
1.00012 -0.000881231 0.0 
0.918564 0.000193612 0.0 
0.0849126 0.00558675 0.0 
1.00144 -0.00302518 0.0 
0.998977 -0.000432225 0.0 
1.00129 -0.00268265 0.0 
0.996547 0.00705958 0.0 
0.975527 -0.00186734 0.0 
1.14126 -0.15511 0.0 
1.22509e-08 5.54887e-10 0.0 
1.00172 -3.90726e-05 0.0 
1.10749 -0.0388753 0.0 
1.00598 0.00246127 0.0 
0.997836 -4.8262e-05 0.0 
1.00034 -0.00283678 0.0 
1.00144 -0.00535908 0.0 
0.999462 0.000587535 0.0 
0.0124977 0.00061682 0.0 
0.999301 -0.00461098 0.0 
1.00021 -0.000435529 0.0 
0.996156 0.00599863 0.0 
1.00952 -0.00180683 0.0 
0.00856898 -0.000986986 0.0 
1.00259 -0.00454821 0.0 
0 0 0.0 
1.0025 -0.000694003 0.0 
1.00082 -0.000703661 0.0 
1.00669 -0.00252781 0.0 
0 0 0.0 
0.993525 -0.0137673 0.0 
0 0 0.0 
0 0 0.0 
0.999329 0.000485345 0.0 
1.00215 -0.00117167 0.0 
0.000574086 -0.000100793 0.0 
0.998481 8.13809e-05 0.0 
1.00213 -0.000965384 0.0 
1.00201 -0.00125233 0.0 
0.797484 0.251798 0.0 
0.959781 0.0669735 0.0 
1.00183 -0.00084732 0.0 
1.00213 -0.00149423 0.0 
1.00227 -0.000298926 0.0 
1.00182 -0.00170244 0.0 
0.99856 -0.00100873 0.0 
1.00548 0.0106659 0.0 
0.999917 0.0071214 0.0 
1.00344 -0.00150107 0.0 
1.00004 0.000393845 0.0 
0.187943 0.0108533 0.0 
1.00304 -0.000298866 0.0 
1.00142 0.00187923 0.0 
0.997384 -0.00291538 0.0 
0.986123 -0.0017687 0.0 
1.00083 -0.00205824 0.0 
1.00068 -0.00163151 0.0 
1.00133 -0.00260793 0.0 
1.00109 -0.00177375 0.0 
1.00097 -0.000246709 0.0 
1.00147 -0.00300154 0.0 
1.00876 0.016377 0.0 
0 0 0.0 
1.00196 -0.00550471 0.0 
0.994754 -0.00122992 0.0 
0.999196 0.00443542 0.0 
1.0028 -0.00111327 0.0 
1.00074 -0.00137844 0.0 
0.999823 8.30129e-05 0.0 
1.0026 -0.000605651 0.0 
0 0 0.0 
1.00128 -0.0017093 0.0 
1.0127 -0.00785764 0.0 
0.998889 7.4203e-05 0.0 
0 0 0.0 
1.0016 -0.00288956 0.0 
0 0 0.0 
0.999699 -0.000601359 0.0 
1.0011 -0.000873141 0.0 
0.998665 -0.0111832 0.0 
0.979504 -0.00693231 0.0 
0.996957 -0.00194706 0.0 
0.994012 -0.00410688 0.0 
1.00177 -0.00184382 0.0 
1.00283 -0.000799202 0.0 
1.00111 -0.00187467 0.0 
1.00093 -0.00282993 0.0 
0.999603 0.000364217 0.0 
1.02781 0.00563723 0.0 
0 0 0.0 
1.00561 -0.000173324 0.0 
1.02223 0.0159669 0.0 
0.985414 0.000675997 0.0 
0.99856 0.0133981 0.0 
1.00017 -0.0012587 0.0 
0.0113873 -0.00166059 0.0 
1.00159 -0.00173422 0.0 
1.00808 -0.00869189 0.0 
1.00099 0.00168194 0.0 
0.99568 -0.000483702 0.0 
4.31338e-08 8.27156e-10 0.0 
1.00372 -0.000933851 0.0 
1.00153 -0.00267344 0.0 
0 0 0.0 
1.00015 -0.00180463 0.0 
1.00285 0.00631752 0.0 
2.61714e-07 -9.2081e-09 0.0 
1.00022 -0.00234908 0.0 
1.00232 -0.00284599 0.0 
1.00045 -0.0015197 0.0 
0.0183367 0.000492196 0.0 
1.00793 0.00152952 0.0 
1.00209 -0.000265357 0.0 
1.00259 0.00331651 0.0 
1.01458 0.00161499 0.0 
1.00326 1.36285e-05 0.0 
1.00028 -0.00105895 0.0 
1.00257 -0.000374204 0.0 
1.00024 0.00404373 0.0 
1.00124 -0.00210611 0.0 
0.108159 0.0203377 0.0 
1.001 -0.00107069 0.0 
0.283303 0.0217382 0.0 
1.00163 -0.000860002 0.0 
1.00014 0.0011896 0.0 
1.00017 0.00279835 0.0 
1.00127 -0.000448365 0.0 
1.00265 -0.000680885 0.0 
1.00005 0.00192755 0.0 
0.997201 0.00461962 0.0 
1.00191 -0.000231457 0.0 
1.02506 -0.0077639 0.0 
1.00012 -0.000789536 0.0 
1.0072 -0.001677 0.0 
0 0 0.0 
1.00123 -0.00225425 0.0 
1.00146 -0.00424954 0.0 
0.996344 -0.00533623 0.0 
1.00554 0.0220423 0.0 
1.0003 -0.00595001 0.0 
0.998962 -0.000278876 0.0 
1.0021 -0.000755017 0.0 
0.947827 -0.000233037 0.0 
0.963245 0.00191797 0.0 
8.81748e-09 1.78395e-10 0.0 
1.00283 0.00218541 0.0 
1.0015 -0.00266163 0.0 
1.0031 -0.00166708 0.0 
1.00421 -0.00087586 0.0 
0.995911 0.00377574 0.0 
0 0 0.0 
0.996805 -0.00047839 0.0 
0.999896 0.000499545 0.0 
1.00199 -0.00282839 0.0 
0 0 0.0 
0.999978 6.91637e-05 0.0 
1.00062 -0.000205621 0.0 
1.00203 -0.00090707 0.0 
0.99905 -0.000895462 0.0 
1.00119 -0.000736386 0.0 
1.00644 -0.00471009 0.0 
0.930868 0.00272719 0.0 
0.999966 -0.00287195 0.0 
1.00255 -0.000658808 0.0 
1.00193 -0.00326828 0.0 
0.997767 -5.23537e-05 0.0 
1.00105 -0.000851238 0.0 
1.00146 -0.00157451 0.0 
1.00001 0.00447285 0.0 
1.00235 -0.00407537 0.0 
0.997945 -0.000308442 0.0 
1.00167 -0.000971515 0.0 
1.00153 -0.00197044 0.0 
1.00009 0.000345842 0.0 
0.0906543 -0.00561324 0.0 
1.03509 -0.0446513 0.0 
1.002 -0.000294153 0.0 
0.999902 0.00169366 0.0 
0.144119 -0.00819766 0.0 
1.00141 -0.00255168 0.0 
0.566507 -0.054993 0.0 
1.00274 -0.00321672 0.0 
1.00004 -0.000147645 0.0 
0.997794 0.00331881 0.0 
1.00069 -0.00109213 0.0 
1.00254 -0.00411517 0.0 
0.00959041 0.000378082 0.0 
1.00061 -0.000278452 0.0 
1.00039 -0.00175221 0.0 
1.00233 -0.000869217 0.0 
0.999779 -0.00334105 0.0 
1.00206 -0.00692784 0.0 
1.00134 -0.00224591 0.0 
1.0085 -0.00215308 0.0 
1.00151 -0.00245767 0.0 
0.999575 -0.0153835 0.0 
1.00247 0.00175812 0.0 
0.996473 0.000353309 0.0 
1.00072 0.00132527 0.0 
6.47889e-09 5.0432e-10 0.0 
0.997796 -1.13042e-05 0.0 
8.19422e-08 3.83101e-08 0.0 
1.00025 -0.00123356 0.0 
0.992025 0.0049934 0.0 
1.00228 -0.00111449 0.0 
1.0024 -0.00120624 0.0 
1.00085 -0.00115153 0.0 
1.00223 -0.0105158 0.0 
0 0 0.0 
0.997771 -0.000567032 0.0 
0.994314 -0.000744581 0.0 
0.995763 -0.000115107 0.0 
0.0904144 0.00134686 0.0 
0.0222327 0.00109676 0.0 
0 0 0.0 
1.00389 -0.000227746 0.0 
0.999747 -0.000870101 0.0 
0.999881 -0.000493085 0.0 
1.00127 -0.00113344 0.0 
1.00362 -0.00215079 0.0 
1.00055 -0.00206022 0.0 
0.997851 3.49533e-05 0.0 
1.00056 -0.000889141 0.0 
0.999833 -0.00104196 0.0 
0.0517818 -0.00716771 0.0 
0.996864 -0.000189613 0.0 
1.00717 -0.000797426 0.0 
1.0134 0.0048308 0.0 
1.00267 -0.00074562 0.0 
0.998974 -5.33272e-05 0.0 
1.00141 -0.00275069 0.0 
1.00219 -0.00353265 0.0 
1.00147 -0.00258992 0.0 
1.00358 0.00080432 0.0 
1.00007 -0.000846996 0.0 
1.00063 -0.00590031 0.0 
1.00308 -0.00168282 0.0 
1.002 -0.00108027 0.0 
1.00148 -0.000982649 0.0 
1.00074 -0.000949827 0.0 
0.985827 -0.00562345 0.0 
1.00013 -0.00761278 0.0 
1.00467 -0.000927196 0.0 
1.00052 -0.00773268 0.0 
1.00425 -0.00716427 0.0 
1.00236 0.00406591 0.0 
1.00507 0.0156236 0.0 
1.01778 0.0003294 0.0 
1.00189 -0.00459447 0.0 
0.486502 0.186753 0.0 
1.00442 0.00390745 0.0 
1.00042 -0.000795757 0.0 
0.999152 -0.00752853 0.0 
1.0019 -0.000512848 0.0 
1.00001 0.000496172 0.0 
1.00195 -0.00235229 0.0 
1.00148 -0.000521333 0.0 
1.00175 -0.00121364 0.0 
1.00222 0.00260726 0.0 
1.00251 -0.000798767 0.0 
2.60539e-08 -3.29042e-09 0.0 
0.999321 -0.00236802 0.0 
0.99936 -0.000620331 0.0 
1.00348 -0.00703686 0.0 
0.999773 -0.000400576 0.0 
1.00058 0.00014936 0.0 
1.00306 -0.00117383 0.0 
1.00406 -0.00107994 0.0 
1.00197 -0.00319017 0.0 
1.00178 -0.00415417 0.0 
0.998333 -0.00150975 0.0 
0.999934 0.00112559 0.0 
1.00157 -0.00471627 0.0 
1.00485 0.000923058 0.0 
1.00067 -0.00172483 0.0 
1.00094 -0.0020201 0.0 
0.998963 -0.00211648 0.0 
1.00044 0.00602563 0.0 
1.00248 -0.000921215 0.0 
0 0 0.0 
0.99522 -0.00169785 0.0 
0.999681 -0.000858319 0.0 
1.00156 -0.0030245 0.0 
4.98405e-09 -8.94645e-11 0.0 
1.00043 -0.000363468 0.0 
1.00062 -0.00169309 0.0 
0.998945 -0.00171796 0.0 
1.00091 -0.00214756 0.0 
0.99904 -0.00715942 0.0 
1.00127 -0.000744525 0.0 
1.00018 0.000585863 0.0 
0 0 0.0 
1.0024 -0.00143653 0.0 
1.0003 -0.00233087 0.0 
1.00095 -0.00148431 0.0 
1.00608 -0.00238786 0.0 
1.0032 -0.0021764 0.0 
0.999922 0.000237105 0.0 
1.00091 -0.000307958 0.0 
1.00141 -0.00330635 0.0 
1.00125 -0.00354747 0.0 
1.0075 -0.0332076 0.0 
0.998617 -0.00193232 0.0 
1.00095 -0.00229686 0.0 
1.00261 -6.9082e-05 0.0 
1.0012 -0.000110532 0.0 
0.926176 -0.00539246 0.0 
0 0 0.0 
1.00151 0.000741386 0.0 
0.999212 0.0018787 0.0 
0.989087 0.00283303 0.0 
1.00296 0.000358175 0.0 
1.00155 -0.00249372 0.0 
1.00178 -0.00147025 0.0 
0.999685 0.00014224 0.0 
1.00218 -0.000133376 0.0 
0.999294 0.00388704 0.0 
1.00173 -0.00158963 0.0 
0.999744 -0.000468859 0.0 
1.00445 -0.00380683 0.0 
0.999517 -0.000326418 0.0 
1.00159 -0.000410771 0.0 
0.0140857 0.000826945 0.0 
1.01448 -0.00369767 0.0 
1.00877 -0.00460645 0.0 
1.01307 -0.00837307 0.0 
1.00172 -0.000168649 0.0 
1.00417 -0.00812481 0.0 
1.00166 -0.00161058 0.0 
0 0 0.0 
1.001 -0.00120263 0.0 
0.732722 -0.135815 0.0 
1.04159 -0.0462694 0.0 
0.99745 0.00577025 0.0 
1.00002 -3.92848e-05 0.0 
0.997742 -0.00511261 0.0 
0.990213 0.000425499 0.0 
1.00085 0.00976415 0.0 
1.00261 -0.000511431 0.0 
0.326861 0.0333012 0.0 
1.00149 0.00403038 0.0 
1.0016 -0.0011877 0.0 
1.00169 -0.00157374 0.0 
1.00151 -0.00269999 0.0 
0 0 0.0 
0.999269 -0.000312272 0.0 
1.00109 -0.000700349 0.0 
0.99934 0.00591574 0.0 
0.999727 -0.00231526 0.0 
1.00133 -0.000704718 0.0 
1.00008 -0.00145074 0.0 
1.00253 -0.00345284 0.0 
0.995534 -0.0129945 0.0 
0.999615 0.00330004 0.0 
0.99871 0.00311593 0.0 
0.999352 -0.000749603 0.0 
1.00099 -0.000537645 0.0 
1.00087 -0.00103365 0.0 
1.00154 0.00106711 0.0 
1.05026 -0.223238 0.0 
0.997226 -0.00662547 0.0 
0.998511 0.00572225 0.0 
1.00001 0.000338953 0.0 
1.00351 -0.00184307 0.0 
1.00192 0.00288222 0.0 
1.00187 -0.000395221 0.0 
0.999931 -0.0007628 0.0 
1.00657 -0.00138536 0.0 
1.00425 -0.026775 0.0 
1.0019 -0.00147438 0.0 
1.00137 -0.000937507 0.0 
0.996494 0.000228059 0.0 
0.991039 0.00131748 0.0 
1.00471 -0.00044896 0.0 
1.00072 -0.000356475 0.0 
0.974079 -0.000717845 0.0 
1.00138 -0.000914023 0.0 
0.999099 -0.0026534 0.0 
1.00168 -0.000703933 0.0 
1.00008 -0.00124342 0.0 
1.00299 -0.00044079 0.0 
1.00085 -0.00302368 0.0 
1.00052 -0.000964476 0.0 
1.00067 0.000537301 0.0 
1.00082 -0.000434532 0.0 
1.00043 -0.000995129 0.0 
0.999872 0.00163313 0.0 
1.0095 8.50162e-05 0.0 
1.00334 -0.000548526 0.0 
1.00139 -0.000488421 0.0 
1.00104 -0.00076504 0.0 
0.998403 0.00172609 0.0 
1.0046 -0.000237067 0.0 
1.00195 -0.00152784 0.0 
0.999988 -0.000148224 0.0 
1.00106 -0.000608908 0.0 
0.998359 -0.00274087 0.0 
0.999996 -2.46368e-05 0.0 
1.00014 -0.00122061 0.0 
1.00018 -0.000335304 0.0 
1.00003 -4.78482e-05 0.0 
1.00081 -0.00119462 0.0 
0.997924 -7.78983e-05 0.0 
0 0 0.0 
1.00109 -0.00211602 0.0 
0.999307 0.00241826 0.0 
0.999586 -0.000408715 0.0 
0.999177 -0.000594309 0.0 
1.00223 -0.00147033 0.0 
1.0001 -0.000109681 0.0 
1.0021 -0.00193056 0.0 
1.00194 -0.00081231 0.0 
0 0 0.0 
1.00856 -0.0022433 0.0 
1.05035 -0.0724244 0.0 
1.00166 -0.00125055 0.0 
1.00107 -0.000824533 0.0 
0.998415 -0.000405547 0.0 
1.00001 0.000147031 0.0 
1.00012 -0.0108313 0.0 
1.00199 -0.00352223 0.0 
1.00062 -0.00038485 0.0 
0 0 0.0 
1.0014 -0.00102862 0.0 
0.999671 -0.000905117 0.0 
1.00373 0.000501541 0.0 
0.997892 -0.00376606 0.0 
1.00714 -0.000228109 0.0 
1.0011 -0.000444011 0.0 
1.00018 -0.00300659 0.0 
0.997595 0.0549668 0.0 
1.00151 -0.00255396 0.0 
1.00105 -0.00166941 0.0 
1.00166 -0.00298881 0.0 
1.00172 0.00508551 0.0 
1.00211 -0.00139499 0.0 
1.00424 0.00205055 0.0 
1.00471 8.17175e-05 0.0 
0.999238 -0.000268566 0.0 
1.00184 -0.00163044 0.0 
1.00264 -0.00021034 0.0 
1.0008 -0.0023306 0.0 
1.00104 -0.00034749 0.0 
1.00052 -7.41104e-05 0.0 
0.999744 -0.000776915 0.0 
1.00069 0.000771678 0.0 
1.00184 0.032728 0.0 
1.00142 0.000477617 0.0 
-2.37483e-09 2.62617e-11 0.0 
1.00048 0.00178531 0.0 
1.00081 -0.00188032 0.0 
1.00368 0.00567864 0.0 
1.00611 -0.00267458 0.0 
1.00001 -0.000466931 0.0 
1.00026 -0.00126189 0.0 
1.00021 -0.00300744 0.0 
0.999056 -0.00215441 0.0 
1.00321 -0.0011601 0.0 
0.999587 -0.000553186 0.0 
0.994508 0.00328812 0.0 
0.999614 -0.00352896 0.0 
0.999468 0.000271244 0.0 
1.00156 -0.00297794 0.0 
0.966725 0.000177999 0.0 
1.00149 -0.00176757 0.0 
1.00069 -0.00157084 0.0 
1.0016 -0.000963618 0.0 
1.00092 -0.000993891 0.0 
0.999155 -0.000484229 0.0 
1.00157 -0.00424749 0.0 
0.999982 0.00136795 0.0 
0.998003 -0.00066631 0.0 
1.00289 -0.00137616 0.0 
0.18063 -0.0164204 0.0 
1.00245 -0.000698828 0.0 
1.00138 -0.000148364 0.0 
0.997315 0.00142448 0.0 
0.999909 -0.000955235 0.0 
0.998828 -0.000103229 0.0 
1.00409 -0.00081142 0.0 
1.00007 -0.000366576 0.0 
1.00065 -0.00173746 0.0 
0.997915 -0.00022268 0.0 