<VTKFile type="UnstructuredGrid" version="0.1" byte_order="LittleEndian">
  <UnstructuredGrid>
    <Piece NumberOfPoints="23679" NumberOfCells="47236">
      <Points>
        <DataArray type = "Float64" NumberOfComponents="3" format="ascii">
-5 -7 0.0 
15.5 -7 0.0 
15.5 7 0.0 
-5 7 0.0 
7.63511 2.91639 0.0 
1.87049 1.67084 0.0 
-0.605974 -0.287769 0.0 
2.37337 -3.10656 0.0 
0.929906 2.48659 0.0 
0.824948 -0.0289232 0.0 
0.579762 -2.6174 0.0 
2.75639 -0.320238 0.0 
0.600589 -0.0279367 0.0 
0.809974 0.0358912 0.0 
4.52511 -0.0925724 0.0 
0.692729 -0.023898 0.0 
2.14598 1.71184 0.0 
4.47114 -0.725108 0.0 
2.94972 0.812693 0.0 
-2.51884 -5.20772 0.0 
0.933054 -0.00978829 0.0 
-3.39004 -0.0550254 0.0 
0.209319 0.0741243 0.0 
-0.14562 -1.1416 0.0 
0.16355 -0.0415655 0.0 
4.37129 -0.146188 0.0 
0.125896 0.0617342 0.0 
2.89507 -0.00321849 0.0 
0.117818 -0.0547525 0.0 
0.74577 -0.0190427 0.0 
1.20907 -2.59566 0.0 
7.05945 1.36908 0.0 
1.18414 0.837326 0.0 
-0.664239 0.00933663 0.0 
0.988285 -0.635056 0.0 
0.79931 -0.0154644 0.0 
-0.169857 -0.752454 0.0 
-0.535193 0.781979 0.0 
4.50646 0.336854 0.0 
0.675201 -0.447934 0.0 
4.33956 3.92927 0.0 
7.20401 -0.547152 0.0 
5.06202 0.761268 0.0 
-1.83764 -0.830466 0.0 
2.97447 -2.59497 0.0 
1.77447 -4.2029 0.0 
0.203756 0.0741702 0.0 
2.3905 -0.208726 0.0 
-2.38226 0.0491773 0.0 
1.57579 -4.90006 0.0 
0.892623 0.876713 0.0 
0.619187 0.0692661 0.0 
1.81524 2.22933 0.0 
3.20393 -0.375619 0.0 
0.560088 -0.0307549 0.0 
-4.00064 -1.06423 0.0 
4.1637 1.41296 0.0 
2.03909 0.577378 0.0 
3.97155 -0.451817 0.0 
-1.0713 0.305678 0.0 
1.24518 -0.853569 0.0 
5.30713 0.379083 0.0 
0.993214 0.00283989 0.0 
0.513972 -3.72515 0.0 
4.25372 1.90694 0.0 
0.87556 0.025233 0.0 
0.401296 0.0780688 0.0 
0.44761 -0.0359067 0.0 
-3.06259 -0.640688 0.0 
0.58449 -3.29242 0.0 
4.47137 0.702541 0.0 
-0.523713 -0.272593 0.0 
-0.477755 -0.422453 0.0 
0.570246 -0.533547 0.0 
0.538433 -0.0310055 0.0 
5.2741 -1.01059 0.0 
2.21102 -1.39328 0.0 
1.30783 -0.274121 0.0 
4.18709 -1.48886 0.0 
-1.19726 -3.28581 0.0 
-0.0359698 -1.75399 0.0 
0.617039 -0.0263973 0.0 
5.83653 0.150199 0.0 
5.57946 0.224905 0.0 
0.377841 -0.038928 0.0 
1.38254 1.36675 0.0 
2.58372 -1.06479 0.0 
4.70454 -3.6075 0.0 
0.551438 0.113173 0.0 
0.532912 -0.0384617 0.0 
-0.392031 -0.729994 0.0 
4.38556 1.53498 0.0 
-1.34387 -2.96962 0.0 
4.73748 -0.295427 0.0 
5.13252 -2.84762 0.0 
5.34987 1.08334 0.0 
0.326684 0.0802051 0.0 
1.0681 0.191919 0.0 
0.292684 0.0800176 0.0 
-0.288073 -0.693253 0.0 
0.850052 0.029488 0.0 
7.72674 -2.22661 0.0 
5.73402 0.253504 0.0 
3.27298 3.73283 0.0 
2.31769 -0.889324 0.0 
3.24694 -2.57408 0.0 
-0.795775 -5.8192 0.0 
0.667923 -0.0361302 0.0 
0.835769 0.0314682 0.0 
4.69839 -1.50939 0.0 
4.91709 3.01814 0.0 
0.151849 -0.0409087 0.0 
3.55148 0.264681 0.0 
0.842117 -0.794382 0.0 
2.65591 1.43349 0.0 
0.932811 0.0144733 0.0 
-0.764917 -0.926758 0.0 
3.60734 -0.915315 0.0 
-0.605852 0.649115 0.0 
5.76621 -0.263827 0.0 
3.08877 -0.924843 0.0 
0.899825 -0.00795866 0.0 
6.80384 1.26814 0.0 
3.19847 -0.826277 0.0 
0.0166341 -0.0962489 0.0 
3.983 -1.51439 0.0 
5.81155 1.05052 0.0 
0.403773 -0.0376754 0.0 
4.06583 -0.737319 0.0 
3.85222 3.16404 0.0 
7.27994 -0.917065 0.0 
7.01199 -1.44503 0.0 
5.44634 0.7472 0.0 
5.43495 -0.0201864 0.0 
1.51213 -0.834065 0.0 
1.97076 0.806002 0.0 
0.634487 0.0595385 0.0 
-0.572414 -4.29099 0.0 
1.8826 -0.733417 0.0 
0.759381 -0.180619 0.0 
0.40132 0.0778474 0.0 
0.23454 -0.0430222 0.0 
-0.802406 2.95957 0.0 
0.691963 0.0549995 0.0 
5.47277 -0.740356 0.0 
14.1487 4.94071 0.0 
0.0736498 -1.30758 0.0 
-3.24273 0.882011 0.0 
1.37104 -0.876055 0.0 
-0.483647 -0.194829 0.0 
2.83565 1.06937 0.0 
5.52957 -1.21731 0.0 
0.947149 -0.00912481 0.0 
-0.408161 -0.611461 0.0 
-0.824132 1.91234 0.0 
-0.28194 0.734853 0.0 
-2.58987 -0.112571 0.0 
5.39673 0.0810302 0.0 
0.347037 -1.34491 0.0 
1.28521 2.08402 0.0 
0.220369 -0.0424097 0.0 
-0.490215 0.575937 0.0 
1.64934 -1.3049 0.0 
0.153085 0.0664047 0.0 
-0.251695 -2.55503 0.0 
0.826156 -0.0139773 0.0 
3.35673 0.186652 0.0 
4.62807 -2.39408 0.0 
-1.05781 -1.39579 0.0 
-2.54531 4.21509 0.0 
1.60336 1.51116 0.0 
0.713093 0.0498095 0.0 
0.643534 0.0642145 0.0 
-3.64101 4.81173 0.0 
-1.26922 -3.94313 0.0 
-0.342655 -1.12768 0.0 
3.30326 0.952175 0.0 
5.64264 0.331249 0.0 
1.34559 -0.214642 0.0 
1.60527 0.321358 0.0 
0.328683 -0.0401423 0.0 
3.81728 0.37784 0.0 
4.37562 0.758715 0.0 
5.5831 -1.82905 0.0 
-1.49688 0.101849 0.0 
-1.70027 -0.343758 0.0 
0.937041 0.0136815 0.0 
5.60623 1.42522 0.0 
-1.23169 -0.42816 0.0 
1.69627 2.52442 0.0 
1.36245 -1.5082 0.0 
1.25107 -3.80948 0.0 
2.74679 0.528168 0.0 
5.36614 -1.19177 0.0 
0.605019 1.16677 0.0 
-4.58423 -1.62108 0.0 
-2.02651 2.34708 0.0 
3.99339 3.63024 0.0 
-1.36142 -0.0750085 0.0 
5.19766 -0.482867 0.0 
-3.85513 -1.43107 0.0 
0.966422 0.00919783 0.0 
0.247834 0.0870881 0.0 
-0.465649 -0.817954 0.0 
4.29025 4.26714 0.0 
1.18312 -0.431176 0.0 
9.21986 0.0258833 0.0 
5.39136 -0.625475 0.0 
5.56604 0.611257 0.0 
1.96388 -1.61685 0.0 
0.196106 -0.0423443 0.0 
2.93186 0.364486 0.0 
5.88518 0.822328 0.0 
0.824138 -0.0139123 0.0 
-0.47228 -0.526413 0.0 
0.477118 -0.0338206 0.0 
-4.64673 -2.62107 0.0 
4.10712 -0.887195 0.0 
0.710355 0.0501717 0.0 
1.64936 -0.864917 0.0 
-1.61346 -3.22424 0.0 
0.0092848 0.0284272 0.0 
7.26993 2.53793 0.0 
1.1048 2.83071 0.0 
10.1588 1.30502 0.0 
-0.263385 -0.26391 0.0 
13.7005 7 0.0 
0.52333 0.0703707 0.0 
4.58595 -1.29531 0.0 
5.62067 -0.188463 0.0 
0.799738 -0.0147854 0.0 
11.9625 -2.20661 0.0 
5.40435 0.619553 0.0 
3.28687 -1.45096 0.0 
0.458966 0.0872446 0.0 
5.51568 -0.596029 0.0 
-1.63011 3.37507 0.0 
0.293181 -0.0414659 0.0 
0.865321 -2.71027 0.0 
0.786038 -0.0158333 0.0 
0.0736186 0.0492692 0.0 
4.13993 -2.76136 0.0 
0.881421 -0.0921271 0.0 
0.266317 -3.38104 0.0 
4.88629 -0.852705 0.0 
0.437008 0.076424 0.0 
3.8816 4.12562 0.0 
7.92184 -0.0908268 0.0 
0.176354 -0.0480078 0.0 
-0.662142 0.143724 0.0 
6.26015 0.128606 0.0 
0.915518 -0.00670685 0.0 
3.62021 -1.04763 0.0 
1.34876 0.720027 0.0 
0.982357 -3.49725 0.0 
0.663709 0.0566737 0.0 
5.3066 -0.705713 0.0 
-0.944514 -3.61431 0.0 
1.79294 -0.661223 0.0 
-0.342215 2.27409 0.0 
5.88842 -0.367403 0.0 
0.211839 -0.0420107 0.0 
0.654413 -0.0369233 0.0 
3.68564 6.54289 0.0 
5.00064 1.8515 0.0 
0.69027 0.0546811 0.0 
1.12166 0.441142 0.0 
7.31715 -3.60167 0.0 
2.79958 1.64327 0.0 
0.433465 0.0764782 0.0 
0.584196 0.0652607 0.0 
0.0636322 -0.695974 0.0 
-1.81416 1.63551 0.0 
0.74075 0.0465749 0.0 
2.69342 -1.49048 0.0 
4.86008 -1.00044 0.0 
0.822907 -0.0142337 0.0 
-0.164664 0.307939 0.0 
4.48127 5.51069 0.0 
4.4895 -4.79993 0.0 
5.37438 1.55243 0.0 
0.123991 1.28664 0.0 
6.41782 -0.499678 0.0 
3.16721 -0.70129 0.0 
1.99155 -0.729552 0.0 
4.69954 4.16905 0.0 
-1.91695 -2.36563 0.0 
8.09216 1.16816 0.0 
0.242046 0.0802658 0.0 
2.34355 2.47663 0.0 
2.72841 -0.285972 0.0 
13.5916 6.05949 0.0 
1.64671 4.40597 0.0 
3.03209 1.84093 0.0 
-0.498111 0.662759 0.0 
0.765551 -2.10462 0.0 
5.25655 0.61914 0.0 
6.04759 -2.75505 0.0 
1.12471 -0.237361 0.0 
6.40695 -2.14103 0.0 
4.37139 0.883681 0.0 
0.240004 -0.042139 0.0 
-4.55867 -4.42627 0.0 
-1.09286 3.96435 0.0 
-1.07351 0.572111 0.0 
3.73338 -0.828021 0.0 
-0.766762 -0.403459 0.0 
0.402752 -1.68281 0.0 
0.925255 0.0164317 0.0 
0.88786 -0.943606 0.0 
0.505244 -0.025873 0.0 
-0.299243 0.0389379 0.0 
3.36416 0.723434 0.0 
0.636773 1.7916 0.0 
0.0435288 1.09333 0.0 
0.74756 2.65039 0.0 
5.12608 -1.02106 0.0 
3.05399 0.794214 0.0 
3.3685 -2.29577 0.0 
9.40833 4.18552 0.0 
0.726496 1.10014 0.0 
-1.43587 -0.265452 0.0 
1.53809 -0.965095 0.0 
3.65342 -1.2467 0.0 
3.58193 2.86195 0.0 
1.58453 1.05649 0.0 
0.69113 -0.0216886 0.0 
4.67304 -0.737386 0.0 
2.403 -2.53676 0.0 
-0.883615 -1.03632 0.0 
0.570985 0.067201 0.0 
4.5489 1.01634 0.0 
1.30188 0.95494 0.0 
4.78484 -2.98767 0.0 
0.647276 3.74647 0.0 
1.64058 -1.98991 0.0 
5.60464 1.66025 0.0 
-2.46641 -2.76999 0.0 
0.0236771 0.0292808 0.0 
1.83737 -2.85625 0.0 
0.712397 -0.0207427 0.0 
-0.929233 -3.15638 0.0 
5.62429 -0.0217768 0.0 
0.696715 -0.0236006 0.0 
4.31467 0.462465 0.0 
1.90518 -1.00498 0.0 
3.8123 -0.317197 0.0 
-1.40698 0.43063 0.0 
8.12686 0.163945 0.0 
0.0912505 -0.0517404 0.0 
0.360402 0.0788181 0.0 
0.766222 5.08386 0.0 
0.543306 0.227627 0.0 
0.768677 -0.887089 0.0 
13.8069 6.49329 0.0 
3.14545 -0.527242 0.0 
3.00213 0.685174 0.0 
-3.26851 -1.17579 0.0 
0.326091 -0.0407782 0.0 
-0.350969 -1.28117 0.0 
-1.34372 -4.38367 0.0 
-1.47047 0.274883 0.0 
8.69891 -0.824176 0.0 
0.572752 0.0666296 0.0 
3.02391 1.56815 0.0 
0.546825 -0.0304958 0.0 
7.53034 -2.92118 0.0 
0.862614 -3.9233 0.0 
7.46433 -0.686568 0.0 
0.435695 0.0763326 0.0 
-0.291216 -0.600905 0.0 
0.958024 -0.00418663 0.0 
0.996359 0.00209859 0.0 
-3.04054 -1.35802 0.0 
7.86523 -1.29492 0.0 
0.824153 0.0339519 0.0 
-2.0843 -1.39076 0.0 
2.0242 4.23744 0.0 
6.10554 -1.09258 0.0 
0.070474 0.0518922 0.0 
0.253412 0.0852338 0.0 
4.90662 -3.37133 0.0 
5.3389 -1.37998 0.0 
8.18441 -5.4394 0.0 
4.74018 -1.11041 0.0 
-1.45792 -1.69797 0.0 
-0.658439 1.28669 0.0 
-1.47154 1.02941 0.0 
0.548603 -1.30682 0.0 
-4.28372 4.01846 0.0 
0.597388 -0.031556 0.0 
0.976283 3.91053 0.0 
-1.97604 3.44687 0.0 
-0.823498 -1.2495 0.0 
-0.676338 -0.322971 0.0 
0.0194499 -2.00073 0.0 
6.06625 2.2173 0.0 
4.77636 1.32682 0.0 
3.5286 -1.40716 0.0 
2.2348 6.10147 0.0 
4.3501 1.14584 0.0 
-0.374853 0.997283 0.0 
0.331239 -0.0398749 0.0 
2.92416 0.944765 0.0 
-1.08711 -0.79613 0.0 
-2.10643 0.811211 0.0 
10.0853 -2.20029 0.0 
9.19723 -1.4685 0.0 
-3.63493 -2.23583 0.0 
9.13289 -4.40814 0.0 
0.13646 -0.0401233 0.0 
3.73879 -1.49966 0.0 
1.16246 1.31001 0.0 
1.76621 -0.985528 0.0 
0.279409 0.0783782 0.0 
4.49882 0.813878 0.0 
0.0773295 0.0501322 0.0 
-1.7711 -2.7915 0.0 
2.21785 -2.83793 0.0 
1.9729 0.35934 0.0 
6.07917 0.172121 0.0 
-1.06801 -1.19434 0.0 
-0.742511 -0.787541 0.0 
4.55801 -0.996424 0.0 
10.0032 -3.21238 0.0 
4.23955 3.27 0.0 
4.4588 0.213546 0.0 
-3.41169 -1.50587 0.0 
0.374392 0.944982 0.0 
[...]
<PointData>
  <DataArray type = "Float64" Name="VitesseP1" NumberOfComponents="3" format="ascii">
1 0 0.0 
1.00318 0 0.0 
0.997813 0 0.0 
1 0 0.0 
1.00002 -0.000996833 0.0 
1.00628 -0.00602249 0.0 
0.983527 -0.00243781 0.0 
1.00112 -0.000854407 0.0 
1.00682 -0.000996451 0.0 
0.624822 0.0384499 0.0 
1.00099 -0.00113743 0.0 
0.999611 -0.00344678 0.0 
0.0115631 0.000358553 0.0 
0 0 0.0 
0.945338 -0.00155078 0.0 
0.0879631 0.00547733 0.0 
1.00501 -0.00555459 0.0 
1.00162 -0.00200647 0.0 
1.00167 -0.00548577 0.0 
1.00009 -0.000177146 0.0 
0.149193 0.0100378 0.0 
0.999511 0.00133794 0.0 
0.0776936 0.00947274 0.0 
1.00079 -0.00586346 0.0 
1.25677e-08 -4.78257e-10 0.0 
0.998502 -0.00236413 0.0 
3.12995e-08 6.9705e-09 0.0 
0.844921 -0.00389256 0.0 
1.13922 -0.112873 0.0 
0.0182584 0.00170716 0.0 
1.00107 -0.000894365 0.0 
1.00154 -0.0012818 0.0 
1.01461 -0.0170643 0.0 
0.982484 0.00841142 0.0 
1.00258 0.0082964 0.0 
0.0132265 0.000625415 0.0 
0.999215 -0.0118729 0.0 
1.00319 0.018755 0.0 
1.00143 -0.0027844 0.0 
1.01652 0.0122499 0.0 
1.00071 -0.00142545 0.0 
1.00485 0.000131922 0.0 
1.00164 -0.00239469 0.0 
0.997252 0.000750053 0.0 
1.00121 -0.00105208 0.0 
1.00099 -0.00062649 0.0 
0.174166 0.0175531 0.0 
0.998246 -0.00405016 0.0 
0.998383 0.00269414 0.0 
1.00091 -0.000469292 0.0 
1.02356 -0.0132773 0.0 
0.411525 -0.0405235 0.0 
1.00544 -0.00364967 0.0 
1.00063 -0.00303531 0.0 
0.0309354 0.00188596 0.0 
0.999822 0.000429188 0.0 
1.00152 -0.003076 0.0 
1.00105 -0.0106245 0.0 
1.00139 -0.0024513 0.0 
0.993606 0.00928361 0.0 
1.00024 0.00338465 0.0 
1.00119 -0.00177978 0.0 
-3.04486e-09 -6.383e-10 0.0 
1.00074 -0.000779585 0.0 
1.00159 -0.00275095 0.0 
-0.000848889 0.000159593 0.0 
3.21933e-08 -4.2524e-10 0.0 
0 0 0.0 
0.999184 0.00109534 0.0 
1.0008 -0.000896469 0.0 
1.00161 -0.0028765 0.0 
0.980843 -0.00438045 0.0 
0.986083 -0.00867032 0.0 
1.01716 0.00502519 0.0 
0 0 0.0 
1.00199 -0.00159139 0.0 
1.00001 -0.00099186 0.0 
0.987461 0.00641224 0.0 
1.00154 -0.00165453 0.0 
1.00006 -0.000737132 0.0 
1.00095 -0.00266552 0.0 
0 0 0.0 
0.982938 -0.00175126 0.0 
1.0137 -0.000430482 0.0 
3.44052e-08 1.57741e-09 0.0 
1.00992 -0.00803624 0.0 
0.999874 -0.00178832 0.0 
1.00176 -0.000795006 0.0 
1.13231 -0.0689586 0.0 
0.388684 0.0202812 0.0 
0.99474 -0.00938688 0.0 
1.00153 -0.00283534 0.0 
0.999861 -0.000786474 0.0 
1.00172 -0.00206445 0.0 
1.00196 -0.000994833 0.0 
1.00141 -0.00223697 0.0 
0.116057 0.000464621 0.0 
0.996836 -0.0611746 0.0 
0.148774 0.00371021 0.0 
0.995488 -0.0118009 0.0 
-1.06763e-09 2.08455e-11 0.0 
1.00276 -0.000904721 0.0 
1.00682 -0.00269614 0.0 
1.00156 -0.00166494 0.0 
0.999175 -0.00170345 0.0 
1.00129 -0.00110597 0.0 
1.00036 -0.000210273 0.0 
0.595385 0.0344899 0.0 
0 0 0.0 
1.0018 -0.00154329 0.0 
1.00082 -0.00177774 0.0 
0 0 0.0 
1.00101 -0.00389955 0.0 
1.00549 0.00451466 0.0 
1.003 -0.00550215 0.0 
0 0 0.0 
0.99533 -0.0037836 0.0 
1.00107 -0.00219376 0.0 
0.999144 0.0192009 0.0 
1.00525 -0.0043228 0.0 
1.0005 -0.00223188 0.0 
0 0 0.0 
1.00206 -0.00166364 0.0 
1.00058 -0.00236417 0.0 
0.994147 -0.169871 0.0 
1.00142 -0.00166718 0.0 
1.00086 -0.00224867 0.0 
0 0 0.0 
1.00137 -0.00218307 0.0 
1.00147 -0.00205523 0.0 
1.00397 -0.000614526 0.0 
1.00241 -0.00142678 0.0 
1.00136 -0.0022781 0.0 
0.906114 -0.00166613 0.0 
0.998419 0.00173125 0.0 
1.00317 -0.0105818 0.0 
0 0 0.0 
1.00039 -0.000560653 0.0 
0.99758 -0.000637109 0.0 
1.0163 0.0358376 0.0 
0 0 0.0 
0.0478408 0.000486291 0.0 
1.00355 0.00263291 0.0 
0.0611517 -0.00757288 0.0 
1.00213 -0.00175255 0.0 
0.998141 -0.000335683 0.0 
1.00216 -0.00426088 0.0 
0.999776 0.00198372 0.0 
0.999366 0.00246865 0.0 
0.976318 -0.00283679 0.0 
1.00226 -0.00564589 0.0 
1.00228 -0.00125201 0.0 
0.160842 0.0106614 0.0 
0.99182 -0.0103427 0.0 
1.00489 0.00589406 0.0 
1.009 0.0248694 0.0 
0.998651 0.00216948 0.0 
0.959517 -0.00698986 0.0 
1.00304 -0.00263912 0.0 
1.00772 -0.00309804 0.0 
7.9854e-09 -1.79007e-10 0.0 
0.998763 0.0237546 0.0 
1.00004 9.39358e-05 0.0 
0 0 0.0 
1.00043 -0.00142793 0.0 
0.0252448 0.00192282 0.0 
1.00013 -0.00416662 0.0 
1.0018 -0.00120521 0.0 
0.997779 -0.00192022 0.0 
1.00071 0.00107374 0.0 
1.00771 -0.00697567 0.0 
0 0 0.0 
0.251663 -0.0272206 0.0 
1.00019 0.00048195 0.0 
1.00017 -0.000539257 0.0 
0.999072 -0.00581415 0.0 
1.0018 -0.00455291 0.0 
0.999719 0.000305645 0.0 
0.985272 0.00400249 0.0 
0.99674 -0.0178143 0.0 
0 0 0.0 
1.0012 -0.00356407 0.0 
1.00161 -0.00297411 0.0 
1.00206 -0.00114264 0.0 
0.995608 0.00506598 0.0 
0.996205 0.00237822 0.0 
0 0 0.0 
1.00102 -0.00203966 0.0 
0.993694 0.00144415 0.0 
1.00524 -0.00273018 0.0 
1.00103 1.10625e-05 0.0 
1.00092 -0.00071716 0.0 
1.0009 -0.00615141 0.0 
1.00209 -0.001709 0.0 
1.02138 -0.00153968 0.0 
0.999981 0.000103362 0.0 
1.00144 0.00329447 0.0 
1.00106 -0.00167927 0.0 
0.99418 0.00422323 0.0 
1.00199 -0.00156562 0.0 
0.99979 0.000331036 0.0 
-0.0126212 0.00255995 0.0 
1.09454 0.0825309 0.0 
0.995496 -0.00750778 0.0 
1.00063 -0.00123779 0.0 
0.994785 0.0100274 0.0 
0.974219 -0.000235953 0.0 
1.00274 -0.00227845 0.0 
1.00244 -0.00194618 0.0 
1.00047 -0.000686807 0.0 
2.00519e-08 -9.77059e-10 0.0 
1.00056 -0.005372 0.0 
1.00249 -0.00150741 0.0 
0.0169356 0.0011098 0.0 
0.989167 -0.00904089 0.0 
0 0 0.0 
0.999996 1.63507e-05 0.0 
1.00147 -0.00205684 0.0 
0 0 0.0 
0.998403 0.000772408 0.0 
0.999929 -0.000620765 0.0 
0.69064 0.504812 0.0 
1.00026 -0.00113248 0.0 
1.00545 -0.00108097 0.0 
1.00292 -0.000219298 0.0 
0.973142 -0.0215299 0.0 
0.998063 0 0.0 
0 0 0.0 
1.00172 -0.00166393 0.0 
0.993736 -0.000784713 0.0 
0 0 0.0 
1.00354 -0.000872235 0.0 
1.00146 -0.0019611 0.0 
1.00091 -0.00171389 0.0 
0.857887 -0.0387704 0.0 
1.0016 -0.00109391 0.0 
1.00182 0.00202142 0.0 
1.79167e-08 8.21736e-10 0.0 
1.00102 -0.000993428 0.0 
0 0 0.0 
6.97911e-08 2.11059e-08 0.0 
1.00164 -0.00108375 0.0 
1.0007 0.0467186 0.0 
1.00068 -0.000901453 0.0 
1.00189 -0.00177964 0.0 
0 0 0.0 
1.00092 -0.00136067 0.0 
0.971122 -0.000402568 0.0 
0.696289 -0.0260704 0.0 
0.98442 0.0132006 0.0 
0.972996 -0.00121501 0.0 
0 0 0.0 
1.00107 -0.00206876 0.0 
1.00954 -0.018986 0.0 
1.00088 -0.000802699 0.0 
0.00472526 -0.000571042 0.0 
1.00159 -0.00153789 0.0 
1.00022 -0.000708925 0.0 
0.996789 -0.000312653 0.0 
1.00631 0.00380406 0.0 
1.01179 -0.00556294 0.0 
0 0 0.0 
0.599732 0.0343982 0.0 
1.00037 -0.00017534 0.0 
1.00131 -0.00223581 0.0 
0.0423953 -0.00519594 0.0 
1.01194 -0.035395 0.0 
1.00234 -0.000621483 0.0 
1.0031 -0.00477056 0.0 
0 0 0.0 
8.07152e-09 -5.29395e-10 0.0 
1.00576 -0.0134005 0.0 
1.0013 0.00476833 0.0 
0.00305799 -0.000410192 0.0 
1.00048 -0.00143273 0.0 
1.00189 -0.00175758 0.0 
0.0268264 0.00160253 0.0 
0.98989 0.0600947 0.0 
1.00019 -0.000609073 0.0 
1.00159 -0.000496675 0.0 
1.00136 -0.00209443 0.0 
1.01599 0.00759836 0.0 
1.01123 -0.00512949 0.0 
1.00038 -0.00254963 0.0 
0.997784 -0.00113526 0.0 
1.00044 -0.00123226 0.0 
0.999432 -0.00051247 0.0 
1.00097 -0.00152981 0.0 
0.553645 0.0405256 0.0 
1.00376 -0.00326731 0.0 
0.999314 -0.00354911 0.0 
0.998132 -0.00011015 0.0 
1.00219 -0.000657979 0.0 
1.00283 -0.00409682 0.0 
1.00077 0.0217146 0.0 
1.00134 -0.00112315 0.0 
1.00121 -0.00249143 0.0 
1.00224 -0.000916946 0.0 
0.986249 0.0173358 0.0 
1.00246 -0.00095185 0.0 
1.00161 -0.00298429 0.0 
0 0 0.0 
1 -2.83014e-05 0.0 
1.00198 0.00135347 0.0 
0.996798 0.0107033 0.0 
1.00116 -0.00223879 0.0 
0.989047 -0.00151784 0.0 
1.002 -0.00193808 0.0 
-2.7078e-08 4.29346e-09 0.0 
1.00414 0.00264374 0.0 
0 0 0.0 
0.952677 0.0176752 0.0 
1.00152 -0.00444874 0.0 
1.01177 -0.000282705 0.0 
1.01831 0.0122927 0.0 
1.00634 -0.000271068 0.0 
1.00183 -0.00161699 0.0 
1.00161 -0.00519714 0.0 
1.00125 -0.00121882 0.0 
0.999044 -0.000524704 0.0 
1.02159 -0.00497074 0.0 
0.994904 0.00278074 0.0 
0.999121 0.00118308 0.0 
1.00111 -0.00189115 0.0 
1.00181 -0.00242241 0.0 
1.0079 -0.0113088 0.0 
0 0 0.0 
1.00172 -0.00191033 0.0 
1.00104 -0.000949633 0.0 
0.99626 -0.00293023 0.0 
0.0282085 -0.00219833 0.0 
1.00155 -0.00278989 0.0 
1.01217 -0.0140583 0.0 
1.00183 -0.000970557 0.0 
1.00336 6.83516e-05 0.0 
1.00088 -0.000645859 0.0 
1.00126 -0.00183352 0.0 
0.999706 -0.00027535 0.0 
5.75987e-08 2.91068e-08 0.0 
1.00107 -0.000844306 0.0 
2.51303e-08 1.90245e-09 0.0 
1.00012 -0.000880689 0.0 
0.918544 0.000261632 0.0 
0.0852053 0.00560236 0.0 
1.00146 -0.00299544 0.0 
0.998968 -0.000427176 0.0 
1.00126 -0.00266149 0.0 
0.996547 0.0070633 0.0 
0.975238 -0.00155678 0.0 
1.14123 -0.155104 0.0 
1.22497e-08 5.5494e-10 0.0 
1.00172 -3.84063e-05 0.0 
1.1075 -0.038876 0.0 
1.00597 0.00246427 0.0 
0.998069 -6.5179e-05 0.0 
1.00032 -0.00282318 0.0 
1.00146 -0.0053449 0.0 
0.999462 0.000588204 0.0 
0.0125009 0.000617221 0.0 
0.999298 -0.00460758 0.0 
1.00021 -0.000435432 0.0 
0.996157 0.00600227 0.0 
1.00937 -0.00152588 0.0 
0.00857869 -0.000988096 0.0 
1.0026 -0.00453807 0.0 
0 0 0.0 
1.00249 -0.000672721 0.0 
1.00081 -0.000703805 0.0 
1.00653 -0.00246491 0.0 
0 0 0.0 
0.99352 -0.0137605 0.0 
0 0 0.0 
0 0 0.0 
0.999329 0.000486084 0.0 
1.00208 -0.00112307 0.0 
0.000573814 -0.000100736 0.0 
0.99848 8.28628e-05 0.0 
1.00213 -0.000963489 0.0 
1.00195 -0.00121735 0.0 
0.797494 0.251801 0.0 
0.959782 0.066974 0.0 
1.00182 -0.000849498 0.0 
1.00209 -0.00147631 0.0 
1.00227 -0.000238361 0.0 
1.00179 -0.00168356 0.0 
0.998558 -0.00100699 0.0 
1.00548 0.0106696 0.0 
0.999918 0.00712424 0.0 
1.00343 -0.0014983 0.0 
1.00004 0.000393917 0.0 
0.188627 0.0109449 0.0 
1.00305 -0.000297492 0.0 
1.00142 0.0018798 0.0 
0.997381 -0.00291222 0.0 
0.98612 -0.0017616 0.0 
1.00083 -0.00205647 0.0 
1.00071 -0.00158359 0.0 
1.00136 -0.00257605 0.0 
1.00107 -0.00176601 0.0 
1.00098 -0.000246046 0.0 
1.00149 -0.00297571 0.0 
1.00876 0.0163818 0.0 
0 0 0.0 
1.00197 -0.00549237 0.0 
0.994752 -0.00122607 0.0 
0.999196 0.00443739 0.0 
1.00267 -0.000413623 0.0 
1.00047 -0.00090748 0.0 
0.999823 8.3319e-05 0.0 
1.00257 -0.00037172 0.0 
0 0 0.0 
1.00126 -0.0017014 0.0 
1.0127 -0.00785299 0.0 
0.99888 7.89103e-05 0.0 
0 0 0.0 
1.00162 -0.00285885 0.0 
0 0 0.0 
0.999698 -0.00060072 0.0 
1.0011 -0.000872935 0.0 
0.998674 -0.0111723 0.0 
0.979366 -0.00686373 0.0 
0.996955 -0.00194407 0.0 
0.994009 -0.0041021 0.0 
1.00173 -0.00182469 0.0 
1.00274 -0.000392812 0.0 
1.00112 -0.00186245 0.0 
1.00096 -0.00279622 0.0 
0.999603 0.000364748 0.0 
1.02782 0.00564159 0.0 
0 0 0.0 
1.00388 -0.00102763 0.0 
1.02223 0.0159718 0.0 
0.985253 0.000874678 0.0 
0.998562 0.013403 0.0 
1.00016 -0.0012542 0.0 
0.0113852 -0.00166021 0.0 
1.00156 -0.00172155 0.0 
1.00808 -0.00868615 0.0 
1.00099 0.0016824 0.0 
0.995678 -0.000480364 0.0 
4.31312e-08 8.27211e-10 0.0 
1.003 -0.000347363 0.0 
1.00155 -0.0026395 0.0 
0 0 0.0 
1.00013 -0.00179795 0.0 
1.00285 0.0063198 0.0 
2.61731e-07 -9.20868e-09 0.0 
1.00021 -0.00233936 0.0 
1.00233 -0.00283866 0.0 
1.00048 -0.00147628 0.0 
0.0184108 0.000494204 0.0 
1.00793 0.00153198 0.0 
1.0021 -0.000260724 0.0 
1.00259 0.00331771 0.0 
1.01458 0.00161855 0.0 
1.00307 -0.000386623 0.0 
1.00027 -0.0010583 0.0 
1.00247 -0.000204022 0.0 
1.00024 0.00404526 0.0 
1.00121 -0.00209323 0.0 
0.108158 0.0203375 0.0 
1.00099 -0.00106916 0.0 
0.283298 0.0217379 0.0 
1.00162 -0.000858083 0.0 
1.00014 0.0011899 0.0 
1.00017 0.00279932 0.0 
1.00127 -0.000450235 0.0 
1.00259 -0.00066016 0.0 
1.00005 0.00192818 0.0 
0.997193 0.00462343 0.0 
1.00192 -0.000237514 0.0 
1.02506 -0.00775963 0.0 
1.00011 -0.00078578 0.0 
1.00732 -0.000338457 0.0 
0 0 0.0 
1.00125 -0.00221909 0.0 
1.00147 -0.00423166 0.0 
0.999814 -0.000311287 0.0 
1.00555 0.0220483 0.0 
1.00032 -0.00593534 0.0 
0.998971 -0.000308213 0.0 
1.00208 -0.000764341 0.0 
0.947816 -0.000175406 0.0 
0.963252 0.00197201 0.0 
8.80573e-09 1.79424e-10 0.0 
1.00284 0.0021864 0.0 
1.00152 -0.00262378 0.0 
1.0031 -0.00166426 0.0 
1.00422 -0.000873772 0.0 
0.995911 0.00377896 0.0 
0 0 0.0 
0.996804 -0.000475675 0.0 
0.999896 0.000499822 0.0 
1.002 -0.00281924 0.0 
0 0 0.0 
0.999978 6.928e-05 0.0 
1.00059 -0.000151615 0.0 
1.00201 -0.000910672 0.0 
0.99904 -0.000889942 0.0 
1.00119 -0.000737431 0.0 
1.00644 -0.00470536 0.0 
0.930859 0.00279529 0.0 
0.999963 -0.00286959 0.0 
1.00251 -0.000428483 0.0 
1.00194 -0.00325422 0.0 
0.998043 -0.000128451 0.0 
1.00105 -0.000850776 0.0 
1.00144 -0.00156743 0.0 
1.00001 0.00447464 0.0 
1.00233 -0.0040544 0.0 
0.998334 -0.000130824 0.0 
1.00167 -0.000969197 0.0 
1.00151 -0.00195491 0.0 
1.00009 0.000345901 0.0 
0.0908603 -0.00562979 0.0 
1.0351 -0.0446475 0.0 
1.00201 -0.000307296 0.0 
0.999894 0.00169725 0.0 
0.144555 -0.00823285 0.0 
1.00143 -0.00252857 0.0 
0.56656 -0.0549922 0.0 
1.00275 -0.00321006 0.0 
1.00004 -0.000147601 0.0 
0.997794 0.00332101 0.0 
1.00068 -0.00108941 0.0 
1.00255 -0.00410458 0.0 
0.00959568 0.000378264 0.0 
1.00062 -0.000277401 0.0 
1.00039 -0.00175079 0.0 
1.00231 -0.000882847 0.0 
0.999927 -0.00220321 0.0 
1.00207 -0.00691708 0.0 
1.00136 -0.00220732 0.0 
1.00839 -0.00129229 0.0 
1.00153 -0.00241322 0.0 
0.999583 -0.0153746 0.0 
1.00247 0.00175892 0.0 
0.996472 0.00035608 0.0 
1.00071 0.00132847 0.0 
6.46628e-09 5.03862e-10 0.0 
0.997987 -7.01181e-05 0.0 
8.19419e-08 3.831e-08 0.0 
1.00027 -0.00121912 0.0 
0.992025 0.00499836 0.0 
1.00225 -0.00111117 0.0 
1.00236 -0.0011769 0.0 
1.00084 -0.00114912 0.0 
1.00224 -0.0105065 0.0 
0 0 0.0 
0.998466 -0.000250034 0.0 
0.994305 -0.000738102 0.0 
0.997857 -0.00141575 0.0 
0.0904209 0.00134696 0.0 
0.022277 0.00109873 0.0 
0 0 0.0 
1.0035 -0.000785073 0.0 
0.999797 -0.000878552 0.0 
0.999881 -0.000492667 0.0 
1.00127 -0.00112994 0.0 
1.00363 -0.00214739 0.0 
1.00054 -0.0020516 0.0 
0.99785 3.68328e-05 0.0 
1.00056 -0.000888806 0.0 
0.999853 -0.00102022 0.0 
0.0517828 -0.00716773 0.0 
0.998536 -0.000980252 0.0 
1.00726 -0.000713883 0.0 
1.0134 0.00483427 0.0 
1.00266 -0.000567628 0.0 
0.998974 -5.22245e-05 0.0 
1.00143 -0.00272346 0.0 
1.00221 -0.00352105 0.0 
1.00148 -0.00257574 0.0 
1.004 -0.000759796 0.0 
1.00019 -0.000840147 0.0 
1.00064 -0.00588598 0.0 
1.00302 -0.00165113 0.0 
1.00197 -0.00107773 0.0 
1.00147 -0.000983082 0.0 
1.00074 -0.000945634 0.0 
0.985824 -0.00561591 0.0 
1.00014 -0.00760033 0.0 
1.00466 -0.000924226 0.0 
1.00053 -0.00772063 0.0 
1.00426 -0.00715685 0.0 
1.00236 0.00406733 0.0 
1.00507 0.0156284 0.0 
1.01779 0.000333288 0.0 
1.0019 -0.00458097 0.0 
0.486507 0.186754 0.0 
1.00442 0.00390918 0.0 
1.00042 -0.000795483 0.0 
0.999164 -0.00751528 0.0 
1.0019 -0.000521048 0.0 
1.00001 0.000496297 0.0 
1.00198 -0.00230121 0.0 
1.00148 -0.000523529 0.0 
1.00167 -0.00110177 0.0 
1.00222 0.00260818 0.0 
1.00246 -0.000793654 0.0 
2.60629e-08 -3.29159e-09 0.0 
0.999352 -0.00229199 0.0 
0.999453 -0.000646713 0.0 
1.00348 -0.00702847 0.0 
0.999772 -0.000400106 0.0 
1.00058 0.000149401 0.0 
1.00306 -0.00117165 0.0 
1.00424 -0.000559738 0.0 
1.00199 -0.00317821 0.0 
1.0018 -0.0041394 0.0 
0.998331 -0.00150767 0.0 
0.999934 0.00112599 0.0 
1.00158 -0.00470093 0.0 
1.00485 0.00092601 0.0 
1.00069 -0.00169852 0.0 
1.00095 -0.0019982 0.0 
0.999476 -0.00130494 0.0 
1.00044 0.00602794 0.0 
1.00242 -0.00094527 0.0 
0 0 0.0 
0.995372 -0.000307903 0.0 
0.999701 -0.000840227 0.0 
1.00158 -0.00299779 0.0 
4.99585e-09 -8.95786e-11 0.0 
1.00043 -0.000363542 0.0 
1.00065 -0.00165419 0.0 
0.999045 -0.00155934 0.0 
1.00089 -0.00213694 0.0 
0.999035 -0.00715501 0.0 
1.00126 -0.000745751 0.0 
1.00018 0.000585972 0.0 
0 0 0.0 
1.00235 -0.0014244 0.0 
1.00029 -0.00232893 0.0 
1.00094 -0.00147989 0.0 
1.00596 -0.00231994 0.0 
1.00357 -0.00175806 0.0 
0.999922 0.000237317 0.0 
1.00091 -0.000308472 0.0 
1.00141 -0.00330365 0.0 
1.00128 -0.00352357 0.0 
1.00751 -0.0332022 0.0 
0.999338 -0.000754541 0.0 
1.00093 -0.00228453 0.0 
1.00261 -6.79913e-05 0.0 
1.0012 -0.000111342 0.0 
0.926084 -0.00537694 0.0 
0 0 0.0 
1.00151 0.000741778 0.0 
0.999212 0.00187977 0.0 
0.989086 0.00283895 0.0 
1.00296 0.000359217 0.0 
1.00158 -0.00245164 0.0 
1.00176 -0.00146136 0.0 
0.999685 0.000142698 0.0 
1.00219 -0.000115436 0.0 
0.999294 0.00388872 0.0 
1.00171 -0.00157759 0.0 
0.999753 -0.00046318 0.0 
1.00446 -0.00380197 0.0 
0.999529 -0.000321417 0.0 
1.00159 -0.000414307 0.0 
0.0140992 0.000827845 0.0 
1.01448 -0.00369366 0.0 
1.00878 -0.00460224 0.0 
1.01306 -0.00836852 0.0 
1.00173 -0.000171654 0.0 
1.00418 -0.00811693 0.0 
1.00159 -0.00158313 0.0 
0 0 0.0 
1.00099 -0.00120039 0.0 
0.73271 -0.135777 0.0 
1.0416 -0.0462659 0.0 
0.997451 0.00577329 0.0 
1.00002 -3.92736e-05 0.0 
0.997738 -0.00510866 0.0 
0.990211 0.000431189 0.0 
1.00085 0.00976776 0.0 
1.00261 -0.000510011 0.0 
0.326857 0.0333008 0.0 
1.00149 0.00403174 0.0 
1.00159 -0.00118556 0.0 
1.00166 -0.0015637 0.0 
1.00152 -0.00267655 0.0 
0 0 0.0 
0.999269 -0.000311351 0.0 
1.00109 -0.000701077 0.0 
0.999341 0.0059182 0.0 
0.999724 -0.00231328 0.0 
1.00133 -0.000706473 0.0 
1.00008 -0.0014496 0.0 
1.00254 -0.00344472 0.0 
0.995542 -0.0129835 0.0 
0.988417 -0.00209766 0.0 
0.99871 0.00311771 0.0 
0.999577 -0.000561464 0.0 
1.00099 -0.000538374 0.0 
1.00087 -0.00103308 0.0 
1.00154 0.00106756 0.0 
1.05024 -0.223232 0.0 
0.997222 -0.00662094 0.0 
0.998511 0.005725 0.0 
1.00001 0.000339032 0.0 
1.00335 -0.00180452 0.0 
1.00192 0.00288317 0.0 
1.00186 -0.00039292 0.0 
0.999941 -0.000754224 0.0 
1.0071 -0.00071781 0.0 
1.00426 -0.0267688 0.0 
1.00185 -0.00144878 0.0 
1.00137 -0.000935088 0.0 
0.998857 -0.00173979 0.0 
0.991031 0.00132273 0.0 
1.00293 -0.00118133 0.0 
1.00072 -0.000356768 0.0 
0.973705 -0.000601423 0.0 
1.00137 -0.000914647 0.0 
0.999117 -0.00259161 0.0 
1.00168 -0.000707002 0.0 
1.00011 -0.00121135 0.0 
1.0027 -0.000242957 0.0 
1.00082 -0.00300505 0.0 
1.00051 -0.000961252 0.0 
1.00067 0.000537442 0.0 
1.00082 -0.000432059 0.0 
1.00043 -0.000994634 0.0 
0.999872 0.00163372 0.0 
1.00441 -0.000864685 0.0 
1.00252 -0.00017836 0.0 
1.00139 -0.000487222 0.0 
1.00104 -0.000763634 0.0 
0.998403 0.00172767 0.0 
1.00336 -0.00126229 0.0 
1.00091 -5.27509e-05 0.0 
0.999988 -0.000148118 0.0 
1.00106 -0.000609802 0.0 
1.00035 -0.00086053 0.0 
0.999996 -2.45833e-05 0.0 
1.00016 -0.00120232 0.0 
1.00018 -0.000335253 0.0 
1.00003 -4.7841e-05 0.0 
1.00081 -0.0011938 0.0 
0.998151 -4.03916e-05 0.0 
0 0 0.0 
1.0011 -0.0020981 0.0 
0.999307 0.00241944 0.0 
0.999586 -0.000408056 0.0 
0.999236 -0.000649983 0.0 
1.00222 -0.00146801 0.0 
1.0001 -0.000109673 0.0 
1.00211 -0.00192598 0.0 
1.00193 -0.000817812 0.0 
0 0 0.0 
1.00866 -0.00130639 0.0 
1.05035 -0.0724214 0.0 
1.00167 -0.0012475 0.0 
1.00107 -0.000824622 0.0 
0.998537 -0.000227132 0.0 
1.00001 0.000147054 0.0 
1.00013 -0.0108209 0.0 
1.00201 -0.00350774 0.0 
1.00062 -0.000385057 0.0 
0 0 0.0 
1.00139 -0.00102852 0.0 
0.999868 -0.000818163 0.0 
1.00326 -0.000576071 0.0 
1.00234 -0.000694109 0.0 
1.00719 -0.000152244 0.0 
1.0011 -0.000445265 0.0 
1.0002 -0.00294625 0.0 
0.997603 0.0549769 0.0 
1.00215 -0.000768216 0.0 
1.00109 -0.00160674 0.0 
1.00167 -0.0029684 0.0 
1.00172 0.00508729 0.0 
1.00207 -0.00137995 0.0 
1.00424 0.00205192 0.0 
1.00506 0.00041825 0.0 
0.999257 -0.000264037 0.0 
1.00185 -0.00162648 0.0 
1.00264 -0.000207743 0.0 
1.00078 -0.00231899 0.0 
1.00104 -0.000348534 0.0 
1.00052 -7.41542e-05 0.0 
0.999758 -0.000764574 0.0 
1.00069 0.00077188 0.0 
1.00184 0.0327358 0.0 
1.00142 0.000477971 0.0 
-2.37501e-09 2.63093e-11 0.0 
1.00048 0.00178578 0.0 
1.00083 -0.00185548 0.0 
1.00368 0.00568074 0.0 
1.00596 -0.00262072 0.0 
0.999998 -0.000463292 0.0 
1.00026 -0.00126101 0.0 
1.00019 -0.00298777 0.0 
0.999043 -0.00214621 0.0 
1.0029 -0.000570628 0.0 
0.9996 -0.000544207 0.0 
0.994499 0.00329269 0.0 
0.999596 -0.0035146 0.0 
0.999468 0.000271872 0.0 
1.00158 -0.00294797 0.0 
0.966525 0.000307012 0.0 
1.00153 -0.00170741 0.0 
1.00075 -0.00149698 0.0 
1.00159 -0.000963921 0.0 
1.00091 -0.00099217 0.0 
0.99918 -0.00049312 0.0 
1.00159 -0.00423026 0.0 
0.999982 0.0013684 0.0 
0.998584 -0.000265571 0.0 
1.0036 -0.000418779 0.0 
0.180625 -0.0164163 0.0 
1.00243 -0.000709693 0.0 
1.00138 -0.000149556 0.0 
0.997314 0.00142672 0.0 
1.00007 -0.00090272 0.0 
0.99883 -0.000120771 0.0 
1.00377 -0.0012684 0.0 
1.00007 -0.000366409 0.0 
1.00068 -0.00167436 0.0 