<VTKFile type="UnstructuredGrid" version="0.1" byte_order="LittleEndian">
  <UnstructuredGrid>
    <Piece NumberOfPoints="23679" NumberOfCells="47236">
      <Points>
        <DataArray type = "Float64" NumberOfComponents="3" format="ascii">
-5 -7 0.0 
15.5 -7 0.0 
15.5 7 0.0 
-5 7 0.0 
7.63511 2.91639 0.0 
1.87049 1.67084 0.0 
-0.605974 -0.287769 0.0 
2.37337 -3.10656 0.0 
0.929906 2.48659 0.0 
0.824948 -0.0289232 0.0 
0.579762 -2.6174 0.0 
2.75639 -0.320238 0.0 
0.600589 -0.0279367 0.0 
0.809974 0.0358912 0.0 
4.52511 -0.0925724 0.0 
0.692729 -0.023898 0.0 
2.14598 1.71184 0.0 
4.47114 -0.725108 0.0 
2.94972 0.812693 0.0 
-2.51884 -5.20772 0.0 
0.933054 -0.00978829 0.0 
-3.39004 -0.0550254 0.0 
0.209319 0.0741243 0.0 
-0.14562 -1.1416 0.0 
0.16355 -0.0415655 0.0 
4.37129 -0.146188 0.0 
0.125896 0.0617342 0.0 
2.89507 -0.00321849 0.0 
0.117818 -0.0547525 0.0 
0.74577 -0.0190427 0.0 
1.20907 -2.59566 0.0 
7.05945 1.36908 0.0 
1.18414 0.837326 0.0 
-0.664239 0.00933663 0.0 
0.988285 -0.635056 0.0 
0.79931 -0.0154644 0.0 
-0.169857 -0.752454 0.0 
-0.535193 0.781979 0.0 
4.50646 0.336854 0.0 
0.675201 -0.447934 0.0 
4.33956 3.92927 0.0 
7.20401 -0.547152 0.0 
5.06202 0.761268 0.0 
-1.83764 -0.830466 0.0 
2.97447 -2.59497 0.0 
1.77447 -4.2029 0.0 
0.203756 0.0741702 0.0 
2.3905 -0.208726 0.0 
-2.38226 0.0491773 0.0 
1.57579 -4.90006 0.0 
0.892623 0.876713 0.0 
0.619187 0.0692661 0.0 
1.81524 2.22933 0.0 
3.20393 -0.375619 0.0 
0.560088 -0.0307549 0.0 
-4.00064 -1.06423 0.0 
4.1637 1.41296 0.0 
2.03909 0.577378 0.0 
3.97155 -0.451817 0.0 
-1.0713 0.305678 0.0 
1.24518 -0.853569 0.0 
5.30713 0.379083 0.0 
0.993214 0.00283989 0.0 
0.513972 -3.72515 0.0 
4.25372 1.90694 0.0 
0.87556 0.025233 0.0 
0.401296 0.0780688 0.0 
0.44761 -0.0359067 0.0 
-3.06259 -0.640688 0.0 
0.58449 -3.29242 0.0 
4.47137 0.702541 0.0 
-0.523713 -0.272593 0.0 
-0.477755 -0.422453 0.0 
0.570246 -0.533547 0.0 
0.538433 -0.0310055 0.0 
5.2741 -1.01059 0.0 
2.21102 -1.39328 0.0 
1.30783 -0.274121 0.0 
4.18709 -1.48886 0.0 
-1.19726 -3.28581 0.0 
-0.0359698 -1.75399 0.0 
0.617039 -0.0263973 0.0 
5.83653 0.150199 0.0 
5.57946 0.224905 0.0 
0.377841 -0.038928 0.0 
1.38254 1.36675 0.0 
2.58372 -1.06479 0.0 
4.70454 -3.6075 0.0 
0.551438 0.113173 0.0 
0.532912 -0.0384617 0.0 
-0.392031 -0.729994 0.0 
4.38556 1.53498 0.0 
-1.34387 -2.96962 0.0 
4.73748 -0.295427 0.0 
5.13252 -2.84762 0.0 
5.34987 1.08334 0.0 
0.326684 0.0802051 0.0 
1.0681 0.191919 0.0 
0.292684 0.0800176 0.0 
-0.288073 -0.693253 0.0 
0.850052 0.029488 0.0 
7.72674 -2.22661 0.0 
5.73402 0.253504 0.0 
3.27298 3.73283 0.0 
2.31769 -0.889324 0.0 
3.24694 -2.57408 0.0 
-0.795775 -5.8192 0.0 
0.667923 -0.0361302 0.0 
0.835769 0.0314682 0.0 
4.69839 -1.50939 0.0 
4.91709 3.01814 0.0 
0.151849 -0.0409087 0.0 
3.55148 0.264681 0.0 
0.842117 -0.794382 0.0 
2.65591 1.43349 0.0 
0.932811 0.0144733 0.0 
-0.764917 -0.926758 0.0 
3.60734 -0.915315 0.0 
-0.605852 0.649115 0.0 
5.76621 -0.263827 0.0 
3.08877 -0.924843 0.0 
0.899825 -0.00795866 0.0 
6.80384 1.26814 0.0 
3.19847 -0.826277 0.0 
0.0166341 -0.0962489 0.0 
3.983 -1.51439 0.0 
5.81155 1.05052 0.0 
0.403773 -0.0376754 0.0 
4.06583 -0.737319 0.0 
3.85222 3.16404 0.0 
7.27994 -0.917065 0.0 
7.01199 -1.44503 0.0 
5.44634 0.7472 0.0 
5.43495 -0.0201864 0.0 
1.51213 -0.834065 0.0 
1.97076 0.806002 0.0 
0.634487 0.0595385 0.0 
-0.572414 -4.29099 0.0 
1.8826 -0.733417 0.0 
0.759381 -0.180619 0.0 
0.40132 0.0778474 0.0 
0.23454 -0.0430222 0.0 
-0.802406 2.95957 0.0 
0.691963 0.0549995 0.0 
5.47277 -0.740356 0.0 
14.1487 4.94071 0.0 
0.0736498 -1.30758 0.0 
-3.24273 0.882011 0.0 
1.37104 -0.876055 0.0 
-0.483647 -0.194829 0.0 
2.83565 1.06937 0.0 
5.52957 -1.21731 0.0 
0.947149 -0.00912481 0.0 
-0.408161 -0.611461 0.0 
-0.824132 1.91234 0.0 
-0.28194 0.734853 0.0 
-2.58987 -0.112571 0.0 
5.39673 0.0810302 0.0 
0.347037 -1.34491 0.0 
1.28521 2.08402 0.0 
0.220369 -0.0424097 0.0 
-0.490215 0.575937 0.0 
1.64934 -1.3049 0.0 
0.153085 0.0664047 0.0 
-0.251695 -2.55503 0.0 
0.826156 -0.0139773 0.0 
3.35673 0.186652 0.0 
4.62807 -2.39408 0.0 
-1.05781 -1.39579 0.0 
-2.54531 4.21509 0.0 
1.60336 1.51116 0.0 
0.713093 0.0498095 0.0 
0.643534 0.0642145 0.0 
-3.64101 4.81173 0.0 
-1.26922 -3.94313 0.0 
-0.342655 -1.12768 0.0 
3.30326 0.952175 0.0 
5.64264 0.331249 0.0 
1.34559 -0.214642 0.0 
1.60527 0.321358 0.0 
0.328683 -0.0401423 0.0 
3.81728 0.37784 0.0 
4.37562 0.758715 0.0 
5.5831 -1.82905 0.0 
-1.49688 0.101849 0.0 
-1.70027 -0.343758 0.0 
0.937041 0.0136815 0.0 
5.60623 1.42522 0.0 
-1.23169 -0.42816 0.0 
1.69627 2.52442 0.0 
1.36245 -1.5082 0.0 
1.25107 -3.80948 0.0 
2.74679 0.528168 0.0 
5.36614 -1.19177 0.0 
0.605019 1.16677 0.0 
-4.58423 -1.62108 0.0 
-2.02651 2.34708 0.0 
3.99339 3.63024 0.0 
-1.36142 -0.0750085 0.0 
5.19766 -0.482867 0.0 
-3.85513 -1.43107 0.0 
0.966422 0.00919783 0.0 
0.247834 0.0870881 0.0 
-0.465649 -0.817954 0.0 
4.29025 4.26714 0.0 
1.18312 -0.431176 0.0 
9.21986 0.0258833 0.0 
5.39136 -0.625475 0.0 
5.56604 0.611257 0.0 
1.96388 -1.61685 0.0 
0.196106 -0.0423443 0.0 
2.93186 0.364486 0.0 
5.88518 0.822328 0.0 
0.824138 -0.0139123 0.0 
-0.47228 -0.526413 0.0 
0.477118 -0.0338206 0.0 
-4.64673 -2.62107 0.0 
4.10712 -0.887195 0.0 
0.710355 0.0501717 0.0 
1.64936 -0.864917 0.0 
-1.61346 -3.22424 0.0 
0.0092848 0.0284272 0.0 
7.26993 2.53793 0.0 
1.1048 2.83071 0.0 
10.1588 1.30502 0.0 
-0.263385 -0.26391 0.0 
13.7005 7 0.0 
0.52333 0.0703707 0.0 
4.58595 -1.29531 0.0 
5.62067 -0.188463 0.0 
0.799738 -0.0147854 0.0 
11.9625 -2.20661 0.0 
5.40435 0.619553 0.0 
3.28687 -1.45096 0.0 
0.458966 0.0872446 0.0 
5.51568 -0.596029 0.0 
-1.63011 3.37507 0.0 
0.293181 -0.0414659 0.0 
0.865321 -2.71027 0.0 
0.786038 -0.0158333 0.0 
0.0736186 0.0492692 0.0 
4.13993 -2.76136 0.0 
0.881421 -0.0921271 0.0 
0.266317 -3.38104 0.0 
4.88629 -0.852705 0.0 
0.437008 0.076424 0.0 
3.8816 4.12562 0.0 
7.92184 -0.0908268 0.0 
0.176354 -0.0480078 0.0 
-0.662142 0.143724 0.0 
6.26015 0.128606 0.0 
0.915518 -0.00670685 0.0 
3.62021 -1.04763 0.0 
1.34876 0.720027 0.0 
0.982357 -3.49725 0.0 
0.663709 0.0566737 0.0 
5.3066 -0.705713 0.0 
-0.944514 -3.61431 0.0 
1.79294 -0.661223 0.0 
-0.342215 2.27409 0.0 
5.88842 -0.367403 0.0 
0.211839 -0.0420107 0.0 
0.654413 -0.0369233 0.0 
3.68564 6.54289 0.0 
5.00064 1.8515 0.0 
0.69027 0.0546811 0.0 
1.12166 0.441142 0.0 
7.31715 -3.60167 0.0 
2.79958 1.64327 0.0 
0.433465 0.0764782 0.0 
0.584196 0.0652607 0.0 
0.0636322 -0.695974 0.0 
-1.81416 1.63551 0.0 
0.74075 0.0465749 0.0 
2.69342 -1.49048 0.0 
4.86008 -1.00044 0.0 
0.822907 -0.0142337 0.0 
-0.164664 0.307939 0.0 
4.48127 5.51069 0.0 
4.4895 -4.79993 0.0 
5.37438 1.55243 0.0 
0.123991 1.28664 0.0 
6.41782 -0.499678 0.0 
3.16721 -0.70129 0.0 
1.99155 -0.729552 0.0 
4.69954 4.16905 0.0 
-1.91695 -2.36563 0.0 
8.09216 1.16816 0.0 
0.242046 0.0802658 0.0 
2.34355 2.47663 0.0 
2.72841 -0.285972 0.0 
13.5916 6.05949 0.0 
1.64671 4.40597 0.0 
3.03209 1.84093 0.0 
-0.498111 0.662759 0.0 
0.765551 -2.10462 0.0 
5.25655 0.61914 0.0 
6.04759 -2.75505 0.0 
1.12471 -0.237361 0.0 
6.40695 -2.14103 0.0 
4.37139 0.883681 0.0 
0.240004 -0.042139 0.0 
-4.55867 -4.42627 0.0 
-1.09286 3.96435 0.0 
-1.07351 0.572111 0.0 
3.73338 -0.828021 0.0 
-0.766762 -0.403459 0.0 
0.402752 -1.68281 0.0 
0.925255 0.0164317 0.0 
0.88786 -0.943606 0.0 
0.505244 -0.025873 0.0 
-0.299243 0.0389379 0.0 
3.36416 0.723434 0.0 
0.636773 1.7916 0.0 
0.0435288 1.09333 0.0 
0.74756 2.65039 0.0 
5.12608 -1.02106 0.0 
3.05399 0.794214 0.0 
3.3685 -2.29577 0.0 
9.40833 4.18552 0.0 
0.726496 1.10014 0.0 
-1.43587 -0.265452 0.0 
1.53809 -0.965095 0.0 
3.65342 -1.2467 0.0 
3.58193 2.86195 0.0 
1.58453 1.05649 0.0 
0.69113 -0.0216886 0.0 
4.67304 -0.737386 0.0 
2.403 -2.53676 0.0 
-0.883615 -1.03632 0.0 
0.570985 0.067201 0.0 
4.5489 1.01634 0.0 
1.30188 0.95494 0.0 
4.78484 -2.98767 0.0 
0.647276 3.74647 0.0 
1.64058 -1.98991 0.0 
5.60464 1.66025 0.0 
-2.46641 -2.76999 0.0 
0.0236771 0.0292808 0.0 
1.83737 -2.85625 0.0 
0.712397 -0.0207427 0.0 
-0.929233 -3.15638 0.0 
5.62429 -0.0217768 0.0 
0.696715 -0.0236006 0.0 
4.31467 0.462465 0.0 
1.90518 -1.00498 0.0 
3.8123 -0.317197 0.0 
-1.40698 0.43063 0.0 
8.12686 0.163945 0.0 
0.0912505 -0.0517404 0.0 
0.360402 0.0788181 0.0 
0.766222 5.08386 0.0 
0.543306 0.227627 0.0 
0.768677 -0.887089 0.0 
13.8069 6.49329 0.0 
3.14545 -0.527242 0.0 
3.00213 0.685174 0.0 
-3.26851 -1.17579 0.0 
0.326091 -0.0407782 0.0 
-0.350969 -1.28117 0.0 
-1.34372 -4.38367 0.0 
-1.47047 0.274883 0.0 
8.69891 -0.824176 0.0 
0.572752 0.0666296 0.0 
3.02391 1.56815 0.0 
0.546825 -0.0304958 0.0 
7.53034 -2.92118 0.0 
0.862614 -3.9233 0.0 
7.46433 -0.686568 0.0 
0.435695 0.0763326 0.0 
-0.291216 -0.600905 0.0 
0.958024 -0.00418663 0.0 
0.996359 0.00209859 0.0 
-3.04054 -1.35802 0.0 
7.86523 -1.29492 0.0 
0.824153 0.0339519 0.0 
-2.0843 -1.39076 0.0 
2.0242 4.23744 0.0 
6.10554 -1.09258 0.0 
0.070474 0.0518922 0.0 
0.253412 0.0852338 0.0 
4.90662 -3.37133 0.0 
5.3389 -1.37998 0.0 
8.18441 -5.4394 0.0 
4.74018 -1.11041 0.0 
-1.45792 -1.69797 0.0 
-0.658439 1.28669 0.0 
-1.47154 1.02941 0.0 
0.548603 -1.30682 0.0 
-4.28372 4.01846 0.0 
0.597388 -0.031556 0.0 
0.976283 3.91053 0.0 
-1.97604 3.44687 0.0 
-0.823498 -1.2495 0.0 
-0.676338 -0.322971 0.0 
0.0194499 -2.00073 0.0 
6.06625 2.2173 0.0 
4.77636 1.32682 0.0 
3.5286 -1.40716 0.0 
2.2348 6.10147 0.0 
4.3501 1.14584 0.0 
-0.374853 0.997283 0.0 
0.331239 -0.0398749 0.0 
2.92416 0.944765 0.0 
-1.08711 -0.79613 0.0 
-2.10643 0.811211 0.0 
10.0853 -2.20029 0.0 
9.19723 -1.4685 0.0 
-3.63493 -2.23583 0.0 
9.13289 -4.40814 0.0 
0.13646 -0.0401233 0.0 
3.73879 -1.49966 0.0 
1.16246 1.31001 0.0 
1.76621 -0.985528 0.0 
0.279409 0.0783782 0.0 
4.49882 0.813878 0.0 
0.0773295 0.0501322 0.0 
-1.7711 -2.7915 0.0 
2.21785 -2.83793 0.0 
1.9729 0.35934 0.0 
6.07917 0.172121 0.0 
-1.06801 -1.19434 0.0 
-0.742511 -0.787541 0.0 
4.55801 -0.996424 0.0 
10.0032 -3.21238 0.0 
4.23955 3.27 0.0 
4.4588 0.213546 0.0 
-3.41169 -1.50587 0.0 
0.374392 0.944982 0.0 
[...]
<PointData>
  <DataArray type = "Float64" Name="VitesseP1" NumberOfComponents="3" format="ascii">
1 0 0.0 
1.00299 0 0.0 
0.997742 0 0.0 
1 0 0.0 
0.999994 -0.00102446 0.0 
1.00628 -0.00602467 0.0 
0.983528 -0.00244091 0.0 
1.00112 -0.000854466 0.0 
1.00682 -0.000997374 0.0 
0.62481 0.0384576 0.0 
1.00099 -0.00113772 0.0 
0.999617 -0.00345257 0.0 
0.0115609 0.000358071 0.0 
0 0 0.0 
0.945306 -0.00156099 0.0 
0.0876729 0.00546394 0.0 
1.00501 -0.00555708 0.0 
1.00163 -0.00201418 0.0 
1.00166 -0.00549143 0.0 
1.00009 -0.000177157 0.0 
0.149186 0.0100375 0.0 
0.999511 0.00133762 0.0 
0.0776942 0.00947281 0.0 
1.00079 -0.00586486 0.0 
1.25674e-08 -4.78299e-10 0.0 
0.998498 -0.00237489 0.0 
3.12997e-08 6.97049e-09 0.0 
0.844935 -0.00389864 0.0 
1.13923 -0.112875 0.0 
0.0182242 0.00170408 0.0 
1.00107 -0.000894672 0.0 
1.00152 -0.00132373 0.0 
1.0146 -0.0170656 0.0 
0.982484 0.00840819 0.0 
1.00259 0.00829596 0.0 
0.0132176 0.000625019 0.0 
0.999217 -0.0118751 0.0 
1.00319 0.0187529 0.0 
1.00142 -0.00279588 0.0 
1.01652 0.0122492 0.0 
1.00071 -0.0014285 0.0 
1.00489 0.000102979 0.0 
1.00162 -0.00240857 0.0 
0.997253 0.000749159 0.0 
1.00122 -0.00105252 0.0 
1.00099 -0.000626284 0.0 
0.174167 0.0175532 0.0 
0.99825 -0.00405549 0.0 
0.998383 0.00269343 0.0 
1.00091 -0.000469102 0.0 
1.02356 -0.0132782 0.0 
0.411629 -0.040529 0.0 
1.00544 -0.00365129 0.0 
1.00064 -0.00304196 0.0 
0.0310395 0.00189186 0.0 
0.999822 0.000429032 0.0 
1.00151 -0.00308279 0.0 
1.00105 -0.010629 0.0 
1.00141 -0.00245929 0.0 
0.993606 0.0092816 0.0 
1.00025 0.00338381 0.0 
1.00118 -0.00179762 0.0 
-3.04492e-09 -6.38278e-10 0.0 
1.00074 -0.000779587 0.0 
1.00158 -0.00275687 0.0 
-0.000848848 0.000159585 0.0 
3.21981e-08 -4.25297e-10 0.0 
0 0 0.0 
0.999184 0.00109495 0.0 
1.0008 -0.000896552 0.0 
1.0016 -0.00288658 0.0 
0.980844 -0.00438386 0.0 
0.986085 -0.00867341 0.0 
1.01716 0.00502418 0.0 
0 0 0.0 
1.00201 -0.00160095 0.0 
1.00001 -0.000993643 0.0 
0.987463 0.00641227 0.0 
1.00154 -0.00165789 0.0 
1.00006 -0.000737272 0.0 
1.00095 -0.00266628 0.0 
0 0 0.0 
0.982983 -0.00176888 0.0 
1.01368 -0.000451285 0.0 
3.43158e-08 1.57338e-09 0.0 
1.00992 -0.00803795 0.0 
0.999878 -0.00179129 0.0 
1.00176 -0.000794016 0.0 
1.13229 -0.0689626 0.0 
0.388642 0.0202938 0.0 
0.994742 -0.00938913 0.0 
1.00153 -0.00284265 0.0 
0.999862 -0.000786681 0.0 
1.00174 -0.00207621 0.0 
1.00197 -0.000994815 0.0 
1.00139 -0.00225222 0.0 
0.116059 0.000464607 0.0 
0.996836 -0.0611728 0.0 
0.148775 0.00371024 0.0 
0.995491 -0.0118033 0.0 
-1.06731e-09 2.07905e-11 0.0 
1.00278 -0.000901581 0.0 
1.00681 -0.00272124 0.0 
1.00156 -0.00166659 0.0 
0.999179 -0.00170635 0.0 
1.0013 -0.00110638 0.0 
1.00036 -0.000210246 0.0 
0.59571 0.0344895 0.0 
0 0 0.0 
1.00181 -0.00154745 0.0 
1.00081 -0.0017839 0.0 
0 0 0.0 
1.001 -0.00390813 0.0 
1.0055 0.00451395 0.0 
1.003 -0.00550583 0.0 
0 0 0.0 
0.995331 -0.00378523 0.0 
1.00108 -0.00219868 0.0 
0.999142 0.0191985 0.0 
1.00525 -0.00433665 0.0 
1.0005 -0.00223602 0.0 
0 0 0.0 
1.00204 -0.00169772 0.0 
1.00059 -0.00236884 0.0 
0.994156 -0.169879 0.0 
1.00143 -0.00167022 0.0 
1.00085 -0.0022698 0.0 
0 0 0.0 
1.00138 -0.00218966 0.0 
1.00146 -0.00205816 0.0 
1.00402 -0.000638969 0.0 
1.00245 -0.00143546 0.0 
1.00134 -0.00229575 0.0 
0.906127 -0.00168134 0.0 
0.998422 0.00173004 0.0 
1.00317 -0.0105854 0.0 
0 0 0.0 
1.00039 -0.000560647 0.0 
0.997583 -0.000639271 0.0 
1.01631 0.0358384 0.0 
0 0 0.0 
0.0478396 0.000486278 0.0 
1.00355 0.0026325 0.0 
0.061173 -0.00757533 0.0 
1.00215 -0.0017669 0.0 
0.997794 -0.000371703 0.0 
1.00216 -0.00426199 0.0 
0.999776 0.0019834 0.0 
0.999369 0.00246765 0.0 
0.976319 -0.00284059 0.0 
1.00226 -0.00565066 0.0 
1.0023 -0.00126106 0.0 
0.160836 0.0106611 0.0 
0.991822 -0.0103453 0.0 
1.00489 0.00589324 0.0 
1.009 0.024867 0.0 
0.998651 0.00216888 0.0 
0.959584 -0.0070059 0.0 
1.00305 -0.00264008 0.0 
1.00772 -0.00309933 0.0 
7.98517e-09 -1.79044e-10 0.0 
0.998762 0.0237519 0.0 
1.00004 9.2709e-05 0.0 
0 0 0.0 
1.00043 -0.00142827 0.0 
0.0252349 0.00192213 0.0 
1.00013 -0.00417516 0.0 
1.00181 -0.00120604 0.0 
0.99778 -0.0019212 0.0 
1.00071 0.00107364 0.0 
1.00771 -0.00697762 0.0 
0 0 0.0 
0.251744 -0.0272271 0.0 
1.00019 0.000481918 0.0 
1.00017 -0.000539306 0.0 
0.999073 -0.00581562 0.0 
1.0018 -0.00455878 0.0 
0.9997 0.000281364 0.0 
0.985275 0.00400259 0.0 
0.996739 -0.0178174 0.0 
0 0 0.0 
1.00119 -0.00357283 0.0 
1.0016 -0.00298356 0.0 
1.00207 -0.00114774 0.0 
0.995607 0.00506454 0.0 
0.996205 0.00237706 0.0 
0 0 0.0 
1.00101 -0.00205596 0.0 
0.993695 0.0014425 0.0 
1.00524 -0.00273152 0.0 
1.00103 1.01706e-05 0.0 
1.00092 -0.000717092 0.0 
1.00089 -0.00615762 0.0 
1.00211 -0.00171777 0.0 
1.02138 -0.00154085 0.0 
0.999981 0.00010331 0.0 
1.00144 0.00329409 0.0 
1.00106 -0.00168186 0.0 
0.99418 0.00422163 0.0 
1.00201 -0.00157808 0.0 
0.99979 0.000330876 0.0 
-0.0126217 0.00256005 0.0 
1.09453 0.0825305 0.0 
0.995498 -0.0075098 0.0 
1.00063 -0.00124035 0.0 
0.994789 0.0100272 0.0 
0.974305 -0.000487646 0.0 
1.00276 -0.00229332 0.0 
1.00243 -0.00196609 0.0 
1.00048 -0.000688067 0.0 
2.00514e-08 -9.77068e-10 0.0 
1.00055 -0.0053791 0.0 
1.00247 -0.00153046 0.0 
0.0169286 0.00110939 0.0 
0.989169 -0.00904366 0.0 
0 0 0.0 
0.999996 1.63216e-05 0.0 
1.00148 -0.00206273 0.0 
0 0 0.0 
0.998406 0.000770925 0.0 
0.99993 -0.000620921 0.0 
0.690625 0.504796 0.0 
1.00024 -0.00116309 0.0 
1.00545 -0.00108183 0.0 
1.00274 -0.000438315 0.0 
0.973144 -0.0215344 0.0 
0.997948 0 0.0 
0 0 0.0 
1.00173 -0.00166881 0.0 
0.993722 -0.000793766 0.0 
0 0 0.0 
1.0037 -0.00114482 0.0 
1.00145 -0.00197868 0.0 
1.00091 -0.00171659 0.0 
0.858335 -0.0387766 0.0 
1.00162 -0.00110662 0.0 
1.00182 0.00202119 0.0 
1.79444e-08 8.22941e-10 0.0 
1.00102 -0.000993678 0.0 
0 0 0.0 
6.97914e-08 2.11059e-08 0.0 
1.00164 -0.0010837 0.0 
1.0007 0.0467229 0.0 
1.00068 -0.000901528 0.0 
1.00191 -0.00178809 0.0 
0 0 0.0 
1.00092 -0.00136263 0.0 
0.97117 -0.000450329 0.0 
0.696284 -0.0260703 0.0 
0.98442 0.0131974 0.0 
0.973041 -0.00124489 0.0 
0 0 0.0 
1.00107 -0.00207316 0.0 
1.00954 -0.0189876 0.0 
1.00089 -0.000802707 0.0 
0.0047282 -0.000571397 0.0 
1.00161 -0.00154873 0.0 
1.00022 -0.000709012 0.0 
0.996792 -0.000314633 0.0 
1.00631 0.00380336 0.0 
1.01181 -0.00558269 0.0 
0 0 0.0 
0.600081 0.0343987 0.0 
1.00037 -0.000175599 0.0 
1.0013 -0.00224567 0.0 
0.0424117 -0.00519785 0.0 
1.01194 -0.0353951 0.0 
1.00235 -0.000614751 0.0 
1.0031 -0.00477406 0.0 
0 0 0.0 
8.08117e-09 -5.30426e-10 0.0 
1.00577 -0.0134026 0.0 
1.0013 0.00476769 0.0 
0.00305905 -0.000410337 0.0 
1.00049 -0.00143483 0.0 
1.0019 -0.001765 0.0 
0.0268153 0.00160195 0.0 
0.989887 0.0600902 0.0 
1.00019 -0.000610343 0.0 
1.00159 -0.000495472 0.0 
1.00134 -0.00210851 0.0 
1.01599 0.00759704 0.0 
1.01126 -0.00515517 0.0 
1.00039 -0.00255475 0.0 
0.997787 -0.00113774 0.0 
1.00044 -0.00123558 0.0 
0.999433 -0.000512785 0.0 
1.00093 -0.00156758 0.0 
0.553647 0.0405257 0.0 
1.00375 -0.00326919 0.0 
0.999319 -0.00355496 0.0 
0.997963 -0.000171365 0.0 
1.00218 -0.000658496 0.0 
1.00283 -0.00410031 0.0 
1.00077 0.0217122 0.0 
1.00135 -0.00112364 0.0 
1.0012 -0.0025078 0.0 
1.00225 -0.000916439 0.0 
0.986253 0.0173364 0.0 
1.00247 -0.000955444 0.0 
1.00161 -0.00299334 0.0 
0 0 0.0 
1 -2.8313e-05 0.0 
1.00198 0.00135328 0.0 
0.996797 0.0107015 0.0 
1.00117 -0.00224429 0.0 
0.989048 -0.00152033 0.0 
1.002 -0.0019388 0.0 
-2.70789e-08 4.29361e-09 0.0 
1.00414 0.00264296 0.0 
0 0 0.0 
0.952676 0.0176696 0.0 
1.00151 -0.00445539 0.0 
1.01177 -0.000283768 0.0 
1.01831 0.0122911 0.0 
1.00634 -0.000271862 0.0 
1.00185 -0.00162525 0.0 
1.0016 -0.00520304 0.0 
1.00125 -0.00121961 0.0 
0.999024 -0.000482768 0.0 
1.02159 -0.00497186 0.0 
0.994905 0.00277928 0.0 
0.999124 0.00118183 0.0 
1.00112 -0.00189481 0.0 
1.00181 -0.00242523 0.0 
1.0079 -0.0113111 0.0 
0 0 0.0 
1.00173 -0.00191867 0.0 
1.00104 -0.000950095 0.0 
0.996261 -0.00293164 0.0 
0.0282422 -0.00220082 0.0 
1.00155 -0.00279941 0.0 
1.01217 -0.0140599 0.0 
1.00183 -0.000970176 0.0 
1.00336 6.7909e-05 0.0 
1.00089 -0.000646587 0.0 
1.00124 -0.00184965 0.0 
0.999707 -0.000275538 0.0 
5.75989e-08 2.91068e-08 0.0 
1.00107 -0.000844525 0.0 
2.50633e-08 1.89761e-09 0.0 
1.00012 -0.000880857 0.0 
0.918549 0.000237973 0.0 
0.0849549 0.00558889 0.0 
1.00145 -0.00300557 0.0 
0.998971 -0.000429055 0.0 
1.00127 -0.0026699 0.0 
0.996547 0.00706184 0.0 
0.975314 -0.00168015 0.0 
1.14124 -0.155106 0.0 
1.22539e-08 5.54958e-10 0.0 
1.00172 -3.86262e-05 0.0 
1.10749 -0.0388778 0.0 
1.00597 0.00246345 0.0 
0.997924 -9.03922e-05 0.0 
1.00033 -0.002829 0.0 
1.00145 -0.00535103 0.0 
0.999462 0.000587917 0.0 
0.0125313 0.000618696 0.0 
0.999299 -0.00460884 0.0 
1.00021 -0.000435447 0.0 
0.996156 0.00600084 0.0 
1.00946 -0.00154551 0.0 
0.00858947 -0.00098933 0.0 
1.00259 -0.00454204 0.0 
0 0 0.0 
1.00249 -0.000661423 0.0 
1.00081 -0.000703744 0.0 
1.00659 -0.00249217 0.0 
0 0 0.0 
0.993522 -0.0137632 0.0 
0 0 0.0 
0 0 0.0 
0.999329 0.000485773 0.0 
1.00212 -0.00112254 0.0 
0.000574063 -0.000100787 0.0 
0.99848 8.2281e-05 0.0 
1.00213 -0.000964176 0.0 
1.00197 -0.00123304 0.0 
0.79749 0.2518 0.0 
0.959781 0.0669738 0.0 
1.00183 -0.000848725 0.0 
1.0021 -0.00148316 0.0 
1.00226 -0.000241288 0.0 
1.0018 -0.0016898 0.0 
0.998559 -0.00100765 0.0 
1.00548 0.0106682 0.0 
0.999918 0.00712315 0.0 
1.00344 -0.00149918 0.0 
1.00004 0.000393887 0.0 
0.188497 0.0108686 0.0 
1.00305 -0.000297965 0.0 
1.00142 0.0018796 0.0 
0.997382 -0.00291342 0.0 
0.986121 -0.00176443 0.0 
1.00083 -0.00205706 0.0 
1.0007 -0.00160169 0.0 
1.00135 -0.00258588 0.0 
1.00108 -0.00176902 0.0 
1.00098 -0.000246257 0.0 
1.00148 -0.0029839 0.0 
1.00876 0.01638 0.0 
0 0 0.0 
1.00197 -0.00549761 0.0 
0.994753 -0.00122758 0.0 
0.999196 0.00443662 0.0 
1.00267 -0.000703339 0.0 
1.00057 -0.000965109 0.0 
0.999823 8.3181e-05 0.0 
1.00256 -0.000427863 0.0 
0 0 0.0 
1.00127 -0.00170429 0.0 
1.0127 -0.00785444 0.0 
0.998883 7.72671e-05 0.0 
0 0 0.0 
1.00161 -0.00286873 0.0 
0 0 0.0 
0.999698 -0.000600949 0.0 
1.0011 -0.000873159 0.0 
0.998672 -0.0111774 0.0 
0.979409 -0.00688787 0.0 
0.996956 -0.00194522 0.0 
0.99401 -0.00410396 0.0 
1.00175 -0.0018311 0.0 
1.00273 -0.00060379 0.0 
1.00112 -0.00186593 0.0 
1.00095 -0.0028079 0.0 
0.999603 0.000364516 0.0 
1.02782 0.00564024 0.0 
0 0 0.0 
1.00434 -0.00102619 0.0 
1.02223 0.0159701 0.0 
0.98535 0.000808444 0.0 
0.998561 0.0134011 0.0 
1.00016 -0.00125618 0.0 
0.0113863 -0.00166037 0.0 
1.00157 -0.00172571 0.0 
1.00808 -0.00868826 0.0 
1.00099 0.00168224 0.0 
0.995679 -0.000481666 0.0 
4.31325e-08 8.27188e-10 0.0 
1.00323 -0.000749231 0.0 
1.00154 -0.00265015 0.0 
0 0 0.0 
1.00014 -0.00180088 0.0 
1.00285 0.00631896 0.0 
2.61725e-07 -9.20846e-09 0.0 
1.00021 -0.00234357 0.0 
1.00232 -0.00284122 0.0 
1.00047 -0.00149337 0.0 
0.0183767 0.000493198 0.0 
1.00793 0.00153117 0.0 
1.0021 -0.000258545 0.0 
1.00259 0.00331729 0.0 
1.01458 0.00161743 0.0 
1.00323 -0.000282414 0.0 
1.00027 -0.0010585 0.0 
1.00248 -0.000268461 0.0 
1.00024 0.00404466 0.0 
1.00122 -0.0020981 0.0 
0.108158 0.0203376 0.0 
1.00099 -0.00106996 0.0 
0.2833 0.021738 0.0 
1.00163 -0.000858701 0.0 
1.00014 0.00118977 0.0 
1.00017 0.00279893 0.0 
1.00127 -0.000449661 0.0 
1.00261 -0.000671102 0.0 
1.00005 0.00192792 0.0 
0.997196 0.00462268 0.0 
1.00192 -0.000236177 0.0 
1.02506 -0.00776066 0.0 
1.00011 -0.000787331 0.0 
1.00717 -0.00109017 0.0 
0 0 0.0 
1.00124 -0.00223033 0.0 
1.00147 -0.0042387 0.0 
0.99976 -0.00262528 0.0 
1.00554 0.022046 0.0 
1.00031 -0.00594218 0.0 
0.998958 -0.000311842 0.0 
1.00209 -0.000763074 0.0 
0.947817 -0.000196316 0.0 
0.96325 0.00195267 0.0 
8.79762e-09 1.79091e-10 0.0 
1.00284 0.00218608 0.0 
1.00151 -0.00263648 0.0 
1.0031 -0.00166531 0.0 
1.00421 -0.00087452 0.0 
0.995911 0.00377769 0.0 
0 0 0.0 
0.996805 -0.000476729 0.0 
0.999896 0.000499692 0.0 
1.002 -0.00282227 0.0 
0 0 0.0 
0.999978 6.92236e-05 0.0 
1.0006 -0.000172268 0.0 
1.00202 -0.000910281 0.0 
0.999043 -0.000892098 0.0 
1.00119 -0.000737138 0.0 
1.00644 -0.00470718 0.0 
0.93086 0.0027714 0.0 
0.999964 -0.00287043 0.0 
1.00252 -0.000416746 0.0 
1.00194 -0.00325884 0.0 
0.997844 -0.000150955 0.0 
1.00105 -0.000850986 0.0 
1.00145 -0.00156981 0.0 
1.00001 0.00447394 0.0 
1.00234 -0.00406315 0.0 
0.998188 -0.000293515 0.0 
1.00167 -0.000969987 0.0 
1.00152 -0.00196032 0.0 
1.00009 0.000345878 0.0 
0.0903237 -0.00559601 0.0 
1.03509 -0.0446465 0.0 
1.002 -0.00030339 0.0 
0.999897 0.00169622 0.0 
0.143647 -0.00818107 0.0 
1.00142 -0.00253546 0.0 
0.566637 -0.0549934 0.0 
1.00275 -0.00321252 0.0 
1.00004 -0.000147619 0.0 
0.997794 0.00332014 0.0 
1.00068 -0.00109068 0.0 
1.00254 -0.00410854 0.0 
0.00959152 0.000378122 0.0 
1.00062 -0.000277722 0.0 
1.00039 -0.00175126 0.0 
1.00232 -0.000884246 0.0 
0.999774 -0.00239756 0.0 
1.00207 -0.00692187 0.0 
1.00135 -0.00221953 0.0 
1.00862 -0.0015824 0.0 
1.00152 -0.0024278 0.0 
0.999581 -0.015378 0.0 
1.00247 0.00175866 0.0 
0.996473 0.000354996 0.0 
1.00071 0.00132753 0.0 
6.45919e-09 5.03119e-10 0.0 
0.997821 -6.63211e-05 0.0 
8.1942e-08 3.83101e-08 0.0 
1.00026 -0.00122432 0.0 
0.992025 0.0049964 0.0 
1.00226 -0.00111647 0.0 
1.00237 -0.00118756 0.0 
1.00084 -0.00115027 0.0 
1.00223 -0.0105106 0.0 
0 0 0.0 
0.998162 -0.000608368 0.0 
0.994308 -0.000739825 0.0 
0.996375 -0.00201277 0.0 
0.090419 0.00134695 0.0 
0.0222384 0.00109702 0.0 
0 0 0.0 
1.00376 -0.000792559 0.0 
0.999777 -0.000904094 0.0 
0.999881 -0.000492815 0.0 
1.00127 -0.00113108 0.0 
1.00363 -0.00214868 0.0 
1.00054 -0.00205527 0.0 
0.997851 3.61005e-05 0.0 
1.00056 -0.000888888 0.0 
0.999847 -0.00102966 0.0 
0.0517895 -0.00716851 0.0 
0.997489 -0.00101025 0.0 
1.00722 -0.000742732 0.0 
1.0134 0.00483313 0.0 
1.00266 -0.000548406 0.0 
0.998974 -5.26577e-05 0.0 
1.00142 -0.00273184 0.0 
1.0022 -0.00352508 0.0 
1.00148 -0.00258003 0.0 
1.00415 -4.29516e-05 0.0 
1.00015 -0.000871713 0.0 
1.00064 -0.00589254 0.0 
1.00304 -0.00166484 0.0 
1.00198 -0.00107873 0.0 
1.00147 -0.000982796 0.0 
1.00074 -0.00094694 0.0 
0.985825 -0.00561892 0.0 
1.00013 -0.00760626 0.0 
1.00466 -0.00092515 0.0 
1.00053 -0.0077263 0.0 
1.00425 -0.00715994 0.0 
1.00236 0.00406682 0.0 
1.00507 0.0156266 0.0 
1.01779 0.000332114 0.0 
1.0019 -0.00458628 0.0 
0.486505 0.186754 0.0 
1.00442 0.00390859 0.0 
1.00042 -0.000795546 0.0 
0.99916 -0.0075218 0.0 
1.0019 -0.000518937 0.0 
1.00001 0.00049624 0.0 
1.00197 -0.00231807 0.0 
1.00148 -0.000522387 0.0 
1.00172 -0.00109816 0.0 
1.00222 0.00260787 0.0 
1.00247 -0.000792276 0.0 
2.60784e-08 -3.29366e-09 0.0 
0.999339 -0.00231977 0.0 
0.999417 -0.000635567 0.0 
1.00348 -0.00703205 0.0 
0.999772 -0.000400281 0.0 
1.00058 0.000149389 0.0 
1.00306 -0.00117244 0.0 
1.00424 -0.000699889 0.0 
1.00198 -0.00318219 0.0 
1.00179 -0.0041449 0.0 
0.998332 -0.00150844 0.0 
0.999934 0.00112581 0.0 
1.00158 -0.00470717 0.0 
1.00485 0.000925158 0.0 
1.00068 -0.00170746 0.0 
1.00095 -0.00200489 0.0 
0.9993 -0.00141586 0.0 
1.00044 0.00602705 0.0 
1.00245 -0.000947958 0.0 
0 0 0.0 
0.995054 -0.000660509 0.0 
0.999694 -0.000847432 0.0 
1.00157 -0.00300636 0.0 
4.97238e-09 -8.82622e-11 0.0 
1.00043 -0.0003635 0.0 
1.00064 -0.00166905 0.0 
0.999025 -0.00161396 0.0 
1.0009 -0.00214125 0.0 
0.999037 -0.00715668 0.0 
1.00127 -0.000745373 0.0 
1.00018 0.00058593 0.0 
0 0 0.0 
1.00237 -0.0014316 0.0 
1.00029 -0.0023296 0.0 
1.00094 -0.00148181 0.0 
1.006 -0.00235007 0.0 
1.00346 -0.00183177 0.0 
0.999922 0.000237216 0.0 
1.00091 -0.000308274 0.0 
1.00141 -0.00330459 0.0 
1.00127 -0.00353297 0.0 
1.00751 -0.0332025 0.0 
0.999094 -0.000978321 0.0 
1.00094 -0.00228952 0.0 
1.00261 -6.83581e-05 0.0 
1.0012 -0.000111332 0.0 
0.926127 -0.00538393 0.0 
0 0 0.0 
1.00151 0.000741657 0.0 
0.999212 0.00187932 0.0 
0.989087 0.0028366 0.0 
1.00296 0.000358873 0.0 
1.00156 -0.00246518 0.0 
1.00177 -0.00146399 0.0 
0.999685 0.000142499 0.0 
1.00218 -0.000109772 0.0 
0.999294 0.00388805 0.0 
1.00172 -0.0015814 0.0 
0.99975 -0.000465143 0.0 
1.00445 -0.00380388 0.0 
0.999525 -0.000323994 0.0 
1.00159 -0.00041305 0.0 
0.0141105 0.00082836 0.0 
1.01448 -0.00369489 0.0 
1.00877 -0.00460374 0.0 
1.01306 -0.00837018 0.0 
1.00173 -0.00017122 0.0 
1.00417 -0.00812025 0.0 
1.00162 -0.00159781 0.0 
0 0 0.0 
1.001 -0.00120145 0.0 
0.732715 -0.135793 0.0 
1.04159 -0.0462647 0.0 
0.99745 0.00577209 0.0 
1.00002 -3.92792e-05 0.0 
0.997739 -0.00511016 0.0 
0.990212 0.000428933 0.0 
1.00085 0.00976638 0.0 
1.00261 -0.000510512 0.0 
0.326858 0.0333009 0.0 
1.00149 0.00403123 0.0 
1.00159 -0.00118601 0.0 
1.00167 -0.00156687 0.0 
1.00152 -0.00268366 0.0 
0 0 0.0 
0.999269 -0.000311707 0.0 
1.00109 -0.000700894 0.0 
0.99934 0.00591725 0.0 
0.999726 -0.00231398 0.0 
1.00133 -0.000705881 0.0 
1.00008 -0.00144998 0.0 
1.00254 -0.00344769 0.0 
0.995541 -0.0129885 0.0 
0.994595 -0.0056362 0.0 
0.99871 0.003117 0.0 
0.999525 -0.000522767 0.0 
1.00099 -0.000538127 0.0 
1.00087 -0.00103325 0.0 
1.00154 0.00106742 0.0 
1.05025 -0.223234 0.0 
0.997223 -0.00662267 0.0 
0.998511 0.00572392 0.0 
1.00001 0.000338995 0.0 
1.0034 -0.00181969 0.0 
1.00192 0.00288284 0.0 
1.00186 -0.000393647 0.0 
0.999939 -0.000757236 0.0 
1.00707 -0.00118196 0.0 
1.00426 -0.0267699 0.0 
1.00187 -0.00146017 0.0 
1.00137 -0.000935904 0.0 
0.99693 -0.0015812 0.0 
0.991033 0.00132199 0.0 
1.00386 -0.00138681 0.0 
1.00072 -0.000356636 0.0 
0.97377 -0.000576626 0.0 
1.00137 -0.000914409 0.0 
0.999107 -0.00261281 0.0 
1.00168 -0.000705847 0.0 
1.0001 -0.00122505 0.0 
1.00282 -0.000485652 0.0 
1.00083 -0.00301285 0.0 
1.00051 -0.000962669 0.0 
1.00067 0.000537397 0.0 
1.00082 -0.000432986 0.0 
1.00043 -0.000994775 0.0 
0.999872 0.00163347 0.0 
1.00598 -0.00184366 0.0 
1.00277 -0.000522627 0.0 
1.00139 -0.000487629 0.0 
1.00104 -0.000764204 0.0 
0.998403 0.00172703 0.0 
1.00398 -0.0013141 0.0 
1.00111 -0.000671677 0.0 
0.999988 -0.000148165 0.0 
1.00106 -0.000609542 0.0 
0.999643 -0.00179641 0.0 
0.999996 -2.46102e-05 0.0 
1.00015 -0.00120859 0.0 
1.00018 -0.000335257 0.0 
1.00003 -4.7845e-05 0.0 
1.00081 -0.00119405 0.0 
0.998059 -9.30916e-05 0.0 
0 0 0.0 
1.0011 -0.00210354 0.0 
0.999307 0.00241896 0.0 
0.999586 -0.000408306 0.0 
0.999209 -0.00064994 0.0 
1.00222 -0.00146875 0.0 
1.0001 -0.000109674 0.0 
1.00211 -0.00192756 0.0 
1.00193 -0.000816309 0.0 
0 0 0.0 
1.00816 -0.00176264 0.0 
1.05035 -0.0724181 0.0 
1.00166 -0.00124854 0.0 
1.00107 -0.000824696 0.0 
0.998552 -0.000217241 0.0 
1.00001 0.000147045 0.0 
1.00013 -0.0108256 0.0 
1.002 -0.00351267 0.0 
1.00062 -0.000384971 0.0 
0 0 0.0 
1.00139 -0.00102857 0.0 
0.999817 -0.000821677 0.0 
1.0037 -0.000231056 0.0 
1.00079 -0.00285934 0.0 
1.00717 -0.000178818 0.0 
1.0011 -0.000444901 0.0 
1.00019 -0.00296725 0.0 
0.9976 0.0549728 0.0 
1.00193 -0.00119423 0.0 
1.00107 -0.00163369 0.0 
1.00167 -0.00297472 0.0 
1.00172 0.00508663 0.0 
1.00208 -0.00138577 0.0 
1.00424 0.00205148 0.0 
1.00495 0.000310748 0.0 
0.99925 -0.000266821 0.0 
1.00185 -0.00162784 0.0 
1.00264 -0.000208533 0.0 
1.00079 -0.00232379 0.0 
1.00104 -0.000348261 0.0 
1.00052 -7.41296e-05 0.0 
0.999754 -0.000770409 0.0 
1.00069 0.000771814 0.0 
1.00184 0.0327327 0.0 
1.00142 0.000477861 0.0 
-2.37508e-09 2.63324e-11 0.0 
1.00048 0.00178559 0.0 
1.00082 -0.00186348 0.0 
1.00368 0.00567998 0.0 
1.00601 -0.00265114 0.0 
1 -0.000464708 0.0 
1.00026 -0.00126129 0.0 
1.0002 -0.00299597 0.0 
0.999047 -0.00214969 0.0 
1.00298 -0.000889071 0.0 
0.999595 -0.000548405 0.0 
0.994502 0.00329182 0.0 
0.999602 -0.00352084 0.0 
0.999468 0.000271606 0.0 
1.00157 -0.00295788 0.0 
0.966604 0.000255316 0.0 
1.00151 -0.00172934 0.0 
1.00073 -0.00152825 0.0 
1.00159 -0.000963591 0.0 
1.00091 -0.000993026 0.0 
0.999169 -0.00050197 0.0 
1.00158 -0.00423694 0.0 
0.999982 0.0013682 0.0 
0.998399 -0.000541707 0.0 
1.00349 -0.000541886 0.0 
0.180621 -0.016418 0.0 
1.00244 -0.000703233 0.0 
1.00138 -0.000149261 0.0 
0.997314 0.00142583 0.0 
1.00003 -0.000929595 0.0 
0.998817 -0.000122831 0.0 
1.00386 -0.0014027 0.0 
1.00007 -0.000366462 0.0 
1.00067 -0.00169733 0.0 
0.998096 -0.000232217 0.0 