<VTKFile type="UnstructuredGrid" version="0.1" byte_order="LittleEndian">
  <UnstructuredGrid>
    <Piece NumberOfPoints="23679" NumberOfCells="47236">
      <Points>
        <DataArray type = "Float64" NumberOfComponents="3" format="ascii">
-5 -7 0.0 
15.5 -7 0.0 
15.5 7 0.0 
-5 7 0.0 
7.63511 2.91639 0.0 
1.87049 1.67084 0.0 
-0.605974 -0.287769 0.0 
2.37337 -3.10656 0.0 
0.929906 2.48659 0.0 
0.824948 -0.0289232 0.0 
0.579762 -2.6174 0.0 
2.75639 -0.320238 0.0 
0.600589 -0.0279367 0.0 
0.809974 0.0358912 0.0 
4.52511 -0.0925724 0.0 
0.692729 -0.023898 0.0 
2.14598 1.71184 0.0 
4.47114 -0.725108 0.0 
2.94972 0.812693 0.0 
-2.51884 -5.20772 0.0 
0.933054 -0.00978829 0.0 
-3.39004 -0.0550254 0.0 
0.209319 0.0741243 0.0 
-0.14562 -1.1416 0.0 
0.16355 -0.0415655 0.0 
4.37129 -0.146188 0.0 
0.125896 0.0617342 0.0 
2.89507 -0.00321849 0.0 
0.117818 -0.0547525 0.0 
0.74577 -0.0190427 0.0 
1.20907 -2.59566 0.0 
7.05945 1.36908 0.0 
1.18414 0.837326 0.0 
-0.664239 0.00933663 0.0 
0.988285 -0.635056 0.0 
0.79931 -0.0154644 0.0 
-0.169857 -0.752454 0.0 
-0.535193 0.781979 0.0 
4.50646 0.336854 0.0 
0.675201 -0.447934 0.0 
4.33956 3.92927 0.0 
7.20401 -0.547152 0.0 
5.06202 0.761268 0.0 
-1.83764 -0.830466 0.0 
2.97447 -2.59497 0.0 
1.77447 -4.2029 0.0 
0.203756 0.0741702 0.0 
2.3905 -0.208726 0.0 
-2.38226 0.0491773 0.0 
1.57579 -4.90006 0.0 
0.892623 0.876713 0.0 
0.619187 0.0692661 0.0 
1.81524 2.22933 0.0 
3.20393 -0.375619 0.0 
0.560088 -0.0307549 0.0 
-4.00064 -1.06423 0.0 
4.1637 1.41296 0.0 
2.03909 0.577378 0.0 
3.97155 -0.451817 0.0 
-1.0713 0.305678 0.0 
1.24518 -0.853569 0.0 
5.30713 0.379083 0.0 
0.993214 0.00283989 0.0 
0.513972 -3.72515 0.0 
4.25372 1.90694 0.0 
0.87556 0.025233 0.0 
0.401296 0.0780688 0.0 
0.44761 -0.0359067 0.0 
-3.06259 -0.640688 0.0 
0.58449 -3.29242 0.0 
4.47137 0.702541 0.0 
-0.523713 -0.272593 0.0 
-0.477755 -0.422453 0.0 
0.570246 -0.533547 0.0 
0.538433 -0.0310055 0.0 
5.2741 -1.01059 0.0 
2.21102 -1.39328 0.0 
1.30783 -0.274121 0.0 
4.18709 -1.48886 0.0 
-1.19726 -3.28581 0.0 
-0.0359698 -1.75399 0.0 
0.617039 -0.0263973 0.0 
5.83653 0.150199 0.0 
5.57946 0.224905 0.0 
0.377841 -0.038928 0.0 
1.38254 1.36675 0.0 
2.58372 -1.06479 0.0 
4.70454 -3.6075 0.0 
0.551438 0.113173 0.0 
0.532912 -0.0384617 0.0 
-0.392031 -0.729994 0.0 
4.38556 1.53498 0.0 
-1.34387 -2.96962 0.0 
4.73748 -0.295427 0.0 
5.13252 -2.84762 0.0 
5.34987 1.08334 0.0 
0.326684 0.0802051 0.0 
1.0681 0.191919 0.0 
0.292684 0.0800176 0.0 
-0.288073 -0.693253 0.0 
0.850052 0.029488 0.0 
7.72674 -2.22661 0.0 
5.73402 0.253504 0.0 
3.27298 3.73283 0.0 
2.31769 -0.889324 0.0 
3.24694 -2.57408 0.0 
-0.795775 -5.8192 0.0 
0.667923 -0.0361302 0.0 
0.835769 0.0314682 0.0 
4.69839 -1.50939 0.0 
4.91709 3.01814 0.0 
0.151849 -0.0409087 0.0 
3.55148 0.264681 0.0 
0.842117 -0.794382 0.0 
2.65591 1.43349 0.0 
0.932811 0.0144733 0.0 
-0.764917 -0.926758 0.0 
3.60734 -0.915315 0.0 
-0.605852 0.649115 0.0 
5.76621 -0.263827 0.0 
3.08877 -0.924843 0.0 
0.899825 -0.00795866 0.0 
6.80384 1.26814 0.0 
3.19847 -0.826277 0.0 
0.0166341 -0.0962489 0.0 
3.983 -1.51439 0.0 
5.81155 1.05052 0.0 
0.403773 -0.0376754 0.0 
4.06583 -0.737319 0.0 
3.85222 3.16404 0.0 
7.27994 -0.917065 0.0 
7.01199 -1.44503 0.0 
5.44634 0.7472 0.0 
5.43495 -0.0201864 0.0 
1.51213 -0.834065 0.0 
1.97076 0.806002 0.0 
0.634487 0.0595385 0.0 
-0.572414 -4.29099 0.0 
1.8826 -0.733417 0.0 
0.759381 -0.180619 0.0 
0.40132 0.0778474 0.0 
0.23454 -0.0430222 0.0 
-0.802406 2.95957 0.0 
0.691963 0.0549995 0.0 
5.47277 -0.740356 0.0 
14.1487 4.94071 0.0 
0.0736498 -1.30758 0.0 
-3.24273 0.882011 0.0 
1.37104 -0.876055 0.0 
-0.483647 -0.194829 0.0 
2.83565 1.06937 0.0 
5.52957 -1.21731 0.0 
0.947149 -0.00912481 0.0 
-0.408161 -0.611461 0.0 
-0.824132 1.91234 0.0 
-0.28194 0.734853 0.0 
-2.58987 -0.112571 0.0 
5.39673 0.0810302 0.0 
0.347037 -1.34491 0.0 
1.28521 2.08402 0.0 
0.220369 -0.0424097 0.0 
-0.490215 0.575937 0.0 
1.64934 -1.3049 0.0 
0.153085 0.0664047 0.0 
-0.251695 -2.55503 0.0 
0.826156 -0.0139773 0.0 
3.35673 0.186652 0.0 
4.62807 -2.39408 0.0 
-1.05781 -1.39579 0.0 
-2.54531 4.21509 0.0 
1.60336 1.51116 0.0 
0.713093 0.0498095 0.0 
0.643534 0.0642145 0.0 
-3.64101 4.81173 0.0 
-1.26922 -3.94313 0.0 
-0.342655 -1.12768 0.0 
3.30326 0.952175 0.0 
5.64264 0.331249 0.0 
1.34559 -0.214642 0.0 
1.60527 0.321358 0.0 
0.328683 -0.0401423 0.0 
3.81728 0.37784 0.0 
4.37562 0.758715 0.0 
5.5831 -1.82905 0.0 
-1.49688 0.101849 0.0 
-1.70027 -0.343758 0.0 
0.937041 0.0136815 0.0 
5.60623 1.42522 0.0 
-1.23169 -0.42816 0.0 
1.69627 2.52442 0.0 
1.36245 -1.5082 0.0 
1.25107 -3.80948 0.0 
2.74679 0.528168 0.0 
5.36614 -1.19177 0.0 
0.605019 1.16677 0.0 
-4.58423 -1.62108 0.0 
-2.02651 2.34708 0.0 
3.99339 3.63024 0.0 
-1.36142 -0.0750085 0.0 
5.19766 -0.482867 0.0 
-3.85513 -1.43107 0.0 
0.966422 0.00919783 0.0 
0.247834 0.0870881 0.0 
-0.465649 -0.817954 0.0 
4.29025 4.26714 0.0 
1.18312 -0.431176 0.0 
9.21986 0.0258833 0.0 
5.39136 -0.625475 0.0 
5.56604 0.611257 0.0 
1.96388 -1.61685 0.0 
0.196106 -0.0423443 0.0 
2.93186 0.364486 0.0 
5.88518 0.822328 0.0 
0.824138 -0.0139123 0.0 
-0.47228 -0.526413 0.0 
0.477118 -0.0338206 0.0 
-4.64673 -2.62107 0.0 
4.10712 -0.887195 0.0 
0.710355 0.0501717 0.0 
1.64936 -0.864917 0.0 
-1.61346 -3.22424 0.0 
0.0092848 0.0284272 0.0 
7.26993 2.53793 0.0 
1.1048 2.83071 0.0 
10.1588 1.30502 0.0 
-0.263385 -0.26391 0.0 
13.7005 7 0.0 
0.52333 0.0703707 0.0 
4.58595 -1.29531 0.0 
5.62067 -0.188463 0.0 
0.799738 -0.0147854 0.0 
11.9625 -2.20661 0.0 
5.40435 0.619553 0.0 
3.28687 -1.45096 0.0 
0.458966 0.0872446 0.0 
5.51568 -0.596029 0.0 
-1.63011 3.37507 0.0 
0.293181 -0.0414659 0.0 
0.865321 -2.71027 0.0 
0.786038 -0.0158333 0.0 
0.0736186 0.0492692 0.0 
4.13993 -2.76136 0.0 
0.881421 -0.0921271 0.0 
0.266317 -3.38104 0.0 
4.88629 -0.852705 0.0 
0.437008 0.076424 0.0 
3.8816 4.12562 0.0 
7.92184 -0.0908268 0.0 
0.176354 -0.0480078 0.0 
-0.662142 0.143724 0.0 
6.26015 0.128606 0.0 
0.915518 -0.00670685 0.0 
3.62021 -1.04763 0.0 
1.34876 0.720027 0.0 
0.982357 -3.49725 0.0 
0.663709 0.0566737 0.0 
5.3066 -0.705713 0.0 
-0.944514 -3.61431 0.0 
1.79294 -0.661223 0.0 
-0.342215 2.27409 0.0 
5.88842 -0.367403 0.0 
0.211839 -0.0420107 0.0 
0.654413 -0.0369233 0.0 
3.68564 6.54289 0.0 
5.00064 1.8515 0.0 
0.69027 0.0546811 0.0 
1.12166 0.441142 0.0 
7.31715 -3.60167 0.0 
2.79958 1.64327 0.0 
0.433465 0.0764782 0.0 
0.584196 0.0652607 0.0 
0.0636322 -0.695974 0.0 
-1.81416 1.63551 0.0 
0.74075 0.0465749 0.0 
2.69342 -1.49048 0.0 
4.86008 -1.00044 0.0 
0.822907 -0.0142337 0.0 
-0.164664 0.307939 0.0 
4.48127 5.51069 0.0 
4.4895 -4.79993 0.0 
5.37438 1.55243 0.0 
0.123991 1.28664 0.0 
6.41782 -0.499678 0.0 
3.16721 -0.70129 0.0 
1.99155 -0.729552 0.0 
4.69954 4.16905 0.0 
-1.91695 -2.36563 0.0 
8.09216 1.16816 0.0 
0.242046 0.0802658 0.0 
2.34355 2.47663 0.0 
2.72841 -0.285972 0.0 
13.5916 6.05949 0.0 
1.64671 4.40597 0.0 
3.03209 1.84093 0.0 
-0.498111 0.662759 0.0 
0.765551 -2.10462 0.0 
5.25655 0.61914 0.0 
6.04759 -2.75505 0.0 
1.12471 -0.237361 0.0 
6.40695 -2.14103 0.0 
4.37139 0.883681 0.0 
0.240004 -0.042139 0.0 
-4.55867 -4.42627 0.0 
-1.09286 3.96435 0.0 
-1.07351 0.572111 0.0 
3.73338 -0.828021 0.0 
-0.766762 -0.403459 0.0 
0.402752 -1.68281 0.0 
0.925255 0.0164317 0.0 
0.88786 -0.943606 0.0 
0.505244 -0.025873 0.0 
-0.299243 0.0389379 0.0 
3.36416 0.723434 0.0 
0.636773 1.7916 0.0 
0.0435288 1.09333 0.0 
0.74756 2.65039 0.0 
5.12608 -1.02106 0.0 
3.05399 0.794214 0.0 
3.3685 -2.29577 0.0 
9.40833 4.18552 0.0 
0.726496 1.10014 0.0 
-1.43587 -0.265452 0.0 
1.53809 -0.965095 0.0 
3.65342 -1.2467 0.0 
3.58193 2.86195 0.0 
1.58453 1.05649 0.0 
0.69113 -0.0216886 0.0 
4.67304 -0.737386 0.0 
2.403 -2.53676 0.0 
-0.883615 -1.03632 0.0 
0.570985 0.067201 0.0 
4.5489 1.01634 0.0 
1.30188 0.95494 0.0 
4.78484 -2.98767 0.0 
0.647276 3.74647 0.0 
1.64058 -1.98991 0.0 
5.60464 1.66025 0.0 
-2.46641 -2.76999 0.0 
0.0236771 0.0292808 0.0 
1.83737 -2.85625 0.0 
0.712397 -0.0207427 0.0 
-0.929233 -3.15638 0.0 
5.62429 -0.0217768 0.0 
0.696715 -0.0236006 0.0 
4.31467 0.462465 0.0 
1.90518 -1.00498 0.0 
3.8123 -0.317197 0.0 
-1.40698 0.43063 0.0 
8.12686 0.163945 0.0 
0.0912505 -0.0517404 0.0 
0.360402 0.0788181 0.0 
0.766222 5.08386 0.0 
0.543306 0.227627 0.0 
0.768677 -0.887089 0.0 
13.8069 6.49329 0.0 
3.14545 -0.527242 0.0 
3.00213 0.685174 0.0 
-3.26851 -1.17579 0.0 
0.326091 -0.0407782 0.0 
-0.350969 -1.28117 0.0 
-1.34372 -4.38367 0.0 
-1.47047 0.274883 0.0 
8.69891 -0.824176 0.0 
0.572752 0.0666296 0.0 
3.02391 1.56815 0.0 
0.546825 -0.0304958 0.0 
7.53034 -2.92118 0.0 
0.862614 -3.9233 0.0 
7.46433 -0.686568 0.0 
0.435695 0.0763326 0.0 
-0.291216 -0.600905 0.0 
0.958024 -0.00418663 0.0 
0.996359 0.00209859 0.0 
-3.04054 -1.35802 0.0 
7.86523 -1.29492 0.0 
0.824153 0.0339519 0.0 
-2.0843 -1.39076 0.0 
2.0242 4.23744 0.0 
6.10554 -1.09258 0.0 
0.070474 0.0518922 0.0 
0.253412 0.0852338 0.0 
4.90662 -3.37133 0.0 
5.3389 -1.37998 0.0 
8.18441 -5.4394 0.0 
4.74018 -1.11041 0.0 
-1.45792 -1.69797 0.0 
-0.658439 1.28669 0.0 
-1.47154 1.02941 0.0 
0.548603 -1.30682 0.0 
-4.28372 4.01846 0.0 
0.597388 -0.031556 0.0 
0.976283 3.91053 0.0 
-1.97604 3.44687 0.0 
-0.823498 -1.2495 0.0 
-0.676338 -0.322971 0.0 
0.0194499 -2.00073 0.0 
6.06625 2.2173 0.0 
4.77636 1.32682 0.0 
3.5286 -1.40716 0.0 
2.2348 6.10147 0.0 
4.3501 1.14584 0.0 
-0.374853 0.997283 0.0 
0.331239 -0.0398749 0.0 
2.92416 0.944765 0.0 
-1.08711 -0.79613 0.0 
-2.10643 0.811211 0.0 
10.0853 -2.20029 0.0 
9.19723 -1.4685 0.0 
-3.63493 -2.23583 0.0 
9.13289 -4.40814 0.0 
0.13646 -0.0401233 0.0 
3.73879 -1.49966 0.0 
1.16246 1.31001 0.0 
1.76621 -0.985528 0.0 
0.279409 0.0783782 0.0 
4.49882 0.813878 0.0 
0.0773295 0.0501322 0.0 
-1.7711 -2.7915 0.0 
2.21785 -2.83793 0.0 
1.9729 0.35934 0.0 
6.07917 0.172121 0.0 
-1.06801 -1.19434 0.0 
-0.742511 -0.787541 0.0 
4.55801 -0.996424 0.0 
10.0032 -3.21238 0.0 
4.23955 3.27 0.0 
4.4588 0.213546 0.0 
-3.41169 -1.50587 0.0 
0.374392 0.944982 0.0 
[...]
<PointData>
  <DataArray type = "Float64" Name="VitesseP1" NumberOfComponents="3" format="ascii">
1 0 0.0 
1.00056 0 0.0 
0.999464 0 0.0 
1 0 0.0 
0.997576 0.000123799 0.0 
1.00571 -0.00683218 0.0 
0.983661 -0.00276221 0.0 
1.00138 -0.00130957 0.0 
1.00661 -0.00101866 0.0 
0.623434 0.0383506 0.0 
1.00109 -0.00139468 0.0 
1.00011 -0.00460532 0.0 
0.0114683 0.000355251 0.0 
0 0 0.0 
0.947869 -0.00560581 0.0 
0.0872247 0.00543664 0.0 
1.00433 -0.00659816 0.0 
1.00333 -0.00435837 0.0 
1.00073 -0.00799897 0.0 
1.00009 -0.000176574 0.0 
0.148359 0.00997872 0.0 
0.999513 0.00129981 0.0 
0.0777823 0.00948324 0.0 
1.00103 -0.00599617 0.0 
1.25257e-08 -4.82504e-10 0.0 
1.00148 -0.00550681 0.0 
3.13305e-08 6.97103e-09 0.0 
0.851239 -0.00531807 0.0 
1.14037 -0.113087 0.0 
0.0181217 0.00169449 0.0 
1.0012 -0.00135196 0.0 
0.994949 0.00099071 0.0 
1.01416 -0.0175309 0.0 
0.982521 0.0080632 0.0 
1.00297 0.00793108 0.0 
0.0131414 0.000621352 0.0 
0.99953 -0.0120887 0.0 
1.00304 0.0185131 0.0 
0.998067 -0.010041 0.0 
1.01701 0.0120263 0.0 
0.999701 -0.00201747 0.0 
1.00471 0.00599537 0.0 
0.995115 -0.00803643 0.0 
0.997293 0.00064647 0.0 
1.00164 -0.00159864 0.0 
1.00115 -0.000955332 0.0 
0.174341 0.0175701 0.0 
0.998741 -0.00503846 0.0 
0.998388 0.00260508 0.0 
1.00104 -0.000716413 0.0 
1.02317 -0.0135832 0.0 
0.413011 -0.0407122 0.0 
1.00498 -0.00421009 0.0 
1.00123 -0.00443235 0.0 
0.0307576 0.00187494 0.0 
0.999823 0.000413419 0.0 
0.998679 -0.00635447 0.0 
1.00051 -0.0119108 0.0 
1.00226 -0.00450363 0.0 
0.993582 0.00905317 0.0 
1.00056 0.00289894 0.0 
0.99261 -0.0100867 0.0 
-3.02733e-09 -6.43777e-10 0.0 
1.00079 -0.00097276 0.0 
0.998867 -0.00515518 0.0 
-0.000796854 0.000150297 0.0 
3.22747e-08 -4.28116e-10 0.0 
0 0 0.0 
0.999192 0.00104842 0.0 
1.00086 -0.00113305 0.0 
0.997815 -0.00848482 0.0 
0.980997 -0.00473818 0.0 
0.986295 -0.00898627 0.0 
1.01764 0.00480228 0.0 
0 0 0.0 
1.00577 -0.00296799 0.0 
1.00031 -0.00174623 0.0 
0.987874 0.00591207 0.0 
1.00281 -0.00279702 0.0 
1.00009 -0.000738759 0.0 
1.00112 -0.00275669 0.0 
0 0 0.0 
0.982852 -0.00981928 0.0 
0.991698 -0.0100111 0.0 
3.40689e-08 1.56103e-09 0.0 
1.00947 -0.00852531 0.0 
1.00027 -0.0027176 0.0 
1.00239 -0.000718405 0.0 
1.13186 -0.0691074 0.0 
0.38753 0.0202343 0.0 
0.994991 -0.00960275 0.0 
0.998282 -0.00593552 0.0 
0.999902 -0.000796682 0.0 
1.00345 -0.0060325 0.0 
1.00299 -0.00080615 0.0 
0.994573 -0.00593341 0.0 
0.116292 0.000465188 0.0 
0.996313 -0.0616315 0.0 
0.148995 0.00371427 0.0 
0.995774 -0.0120335 0.0 
-9.13146e-10 -3.16013e-12 0.0 
1.00267 0.00169519 0.0 
0.988372 -0.0092818 0.0 
1.00094 -0.00230851 0.0 
0.999537 -0.00257294 0.0 
1.00181 -0.00164823 0.0 
1.00036 -0.000201268 0.0 
0.59455 0.0344341 0.0 
0 0 0.0 
1.00366 -0.00255208 0.0 
0.998644 -0.00273232 0.0 
0 0 0.0 
1.00022 -0.00819211 0.0 
1.00585 0.00418598 0.0 
1.00204 -0.00721309 0.0 
0 0 0.0 
0.995483 -0.00393543 0.0 
1.00186 -0.00363093 0.0 
0.999011 0.0189373 0.0 
1.01395 -0.00533981 0.0 
1.00105 -0.00339911 0.0 
0 0 0.0 
0.994056 0.000573192 0.0 
1.00117 -0.00361901 0.0 
0.995196 -0.17068 0.0 
1.00251 -0.00278118 0.0 
0.992851 -0.00421304 0.0 
0 0 0.0 
1.00249 -0.00410702 0.0 
1.00019 -0.00309291 0.0 
1.00404 0.00427124 0.0 
1.00431 0.00235747 0.0 
0.992908 -0.00712954 0.0 
0.961472 -0.0133852 0.0 
0.998733 0.00114458 0.0 
1.0026 -0.0117558 0.0 
0 0 0.0 
1.0004 -0.000543628 0.0 
0.997927 -0.00136394 0.0 
1.01683 0.0356915 0.0 
0 0 0.0 
0.0476636 0.000484165 0.0 
1.00349 0.00256594 0.0 
0.0618814 -0.00766849 0.0 
1.00735 -0.00346229 0.0 
0.99942 0.000176849 0.0 
1.0024 -0.00440038 0.0 
0.999772 0.00194207 0.0 
0.999674 0.00193382 0.0 
0.976462 -0.00323836 0.0 
1.00127 -0.00780759 0.0 
1.00572 -0.00172563 0.0 
0.15994 0.0105979 0.0 
0.992069 -0.0105964 0.0 
1.00481 0.00577999 0.0 
1.00879 0.0246077 0.0 
0.998657 0.0020948 0.0 
0.992884 -0.0148176 0.0 
1.00329 -0.00283743 0.0 
1.0074 -0.00334265 0.0 
7.95335e-09 -1.82835e-10 0.0 
0.998613 0.0234572 0.0 
1.00029 -0.000527403 0.0 
0 0 0.0 
1.00052 -0.00145422 0.0 
0.0250878 0.00191094 0.0 
1.00008 -0.00795084 0.0 
1.00296 -0.00147014 0.0 
0.997883 -0.00200655 0.0 
1.0007 0.00105473 0.0 
1.00722 -0.00760259 0.0 
0 0 0.0 
0.253069 -0.0273974 0.0 
1.00019 0.000475337 0.0 
1.00019 -0.000534268 0.0 
0.999286 -0.00594188 0.0 
1.00046 -0.00752053 0.0 
0.988999 -0.00870361 0.0 
0.985711 0.00348004 0.0 
0.99624 -0.0186531 0.0 
0 0 0.0 
0.999885 -0.0085013 0.0 
0.998133 -0.00823519 0.0 
1.00446 -0.000913138 0.0 
0.995616 0.00489541 0.0 
0.996236 0.00224186 0.0 
0 0 0.0 
0.994792 -0.00411156 0.0 
0.993759 0.00126235 0.0 
1.00487 -0.00311536 0.0 
1.00125 -0.000525854 0.0 
1.00102 -0.00107292 0.0 
1.00027 -0.00845624 0.0 
1.00542 -0.00230158 0.0 
1.02107 -0.00171561 0.0 
0.999982 9.89712e-05 0.0 
1.00141 0.00323734 0.0 
1.00004 -0.002446 0.0 
0.994205 0.0040381 0.0 
1.00619 -0.00545814 0.0 
0.999793 0.00031437 0.0 
-0.0124667 0.00253051 0.0 
1.09427 0.0824819 0.0 
0.995721 -0.00769652 0.0 
0.999855 -0.00170984 0.0 
0.995188 0.00959121 0.0 
0.999666 0.00254043 0.0 
1.00789 -0.00467569 0.0 
0.991863 -0.00727687 0.0 
1.00072 -0.00135628 0.0 
1.99803e-08 -9.77388e-10 0.0 
1.00003 -0.00806417 0.0 
0.991426 -0.00463896 0.0 
0.0168288 0.00110296 0.0 
0.989391 -0.00931853 0.0 
0 0 0.0 
0.999996 1.40094e-05 0.0 
1.00267 -0.00384392 0.0 
0 0 0.0 
0.998712 0.000136569 0.0 
0.999959 -0.000629098 0.0 
0.689021 0.503108 0.0 
0.997079 -2.74974e-06 0.0 
1.00526 -0.00110053 0.0 
0.99913 0.00140469 0.0 
0.973435 -0.022009 0.0 
0.999335 0 0.0 
0 0 0.0 
1.00355 -0.00302423 0.0 
1.00477 -0.0057914 0.0 
0 0 0.0 
1.00054 0.000848117 0.0 
0.992705 -0.00798515 0.0 
1.00154 -0.00272616 0.0 
0.859145 -0.0388456 0.0 
1.00788 -0.00363402 0.0 
1.00179 0.00198128 0.0 
1.78199e-08 8.16163e-10 0.0 
1.00112 -0.0013508 0.0 
0 0 0.0 
6.98324e-08 2.11118e-08 0.0 
1.00243 -0.00140092 0.0 
1.00116 0.0465635 0.0 
1.00073 -0.00103185 0.0 
1.00464 -0.0040431 0.0 
0 0 0.0 
1.00022 -0.00190297 0.0 
0.999961 0.00565327 0.0 
0.695651 -0.026062 0.0 
0.984407 0.0128555 0.0 
0.981172 -0.000432071 0.0 
0 0 0.0 
1.00187 -0.00343406 0.0 
1.00906 -0.0195842 0.0 
1.00097 -0.00114166 0.0 
0.00478885 -0.000578771 0.0 
1.00634 -0.00401729 0.0 
1.00025 -0.000695887 0.0 
0.99715 -0.00100895 0.0 
1.00621 0.00372886 0.0 
1.0162 -0.00325412 0.0 
0 0 0.0 
0.598937 0.0343495 0.0 
1.00033 -0.000218029 0.0 
0.997192 -0.00451081 0.0 
0.0429381 -0.0052654 0.0 
1.01145 -0.0358683 0.0 
1.0024 0.000613244 0.0 
1.00204 -0.00648634 0.0 
0 0 0.0 
8.13008e-09 -5.35621e-10 0.0 
1.00616 -0.013626 0.0 
1.00126 0.00467994 0.0 
0.00313226 -0.000420343 0.0 
1.00088 -0.00228099 0.0 
1.00446 -0.00357834 0.0 
0.0266606 0.00159274 0.0 
0.989583 0.0596003 0.0 
0.999895 -0.000773945 0.0 
1.00197 -0.000425296 0.0 
0.995743 -0.00446275 0.0 
1.01577 0.00746369 0.0 
1.01192 0.00269793 0.0 
1.00097 -0.00383292 0.0 
0.998139 -0.00190347 0.0 
0.999467 -0.00168754 0.0 
0.999469 -0.000544011 0.0 
0.997177 0.00247717 0.0 
0.553997 0.0405463 0.0 
1.00314 -0.00411106 0.0 
0.999812 -0.00469751 0.0 
0.999334 8.81936e-05 0.0 
1.00214 -0.000664879 0.0 
1.0016 -0.00587457 0.0 
1.00061 0.0214426 0.0 
1.00149 -0.00146063 0.0 
0.993611 -0.0085434 0.0 
1.00332 -1.92787e-05 0.0 
0.986661 0.0169387 0.0 
1.00401 0.00054187 0.0 
0.998121 -0.00781579 0.0 
0 0 0.0 
1 -2.89417e-05 0.0 
1.00195 0.00131832 0.0 
0.996744 0.0104903 0.0 
1.00202 -0.0038123 0.0 
0.989172 -0.00177652 0.0 
1.0022 -0.00214623 0.0 
-2.64935e-08 4.19612e-09 0.0 
1.00446 0.00228545 0.0 
0 0 0.0 
0.952683 0.0170648 0.0 
1.00029 -0.00778561 0.0 
1.01152 -0.000352019 0.0 
1.01809 0.0121232 0.0 
1.00618 -0.000232363 0.0 
1.00521 -0.00322038 0.0 
1.0006 -0.0078937 0.0 
1.00182 -0.00184792 0.0 
0.998664 0.000323971 0.0 
1.02125 -0.00518374 0.0 
0.99494 0.0026127 0.0 
0.99941 0.000587492 0.0 
1.00196 -0.00313109 0.0 
1.00055 -0.0036245 0.0 
1.00739 -0.0120437 0.0 
0 0 0.0 
1.00394 -0.00442823 0.0 
1.00132 -0.00150794 0.0 
0.996392 -0.0030607 0.0 
0.0283707 -0.00221149 0.0 
0.99751 -0.00734803 0.0 
1.01171 -0.0145842 0.0 
1.00275 -0.000973026 0.0 
1.0033 0.000168829 0.0 
1.00107 -0.00122156 0.0 
0.995558 -0.00364634 0.0 
0.999725 -0.000296425 0.0 
5.76167e-08 2.91e-08 0.0 
1.00125 -0.00134444 0.0 
2.49141e-08 1.88703e-09 0.0 
1.00016 -0.000874842 0.0 
0.971883 -0.0127855 0.0 
0.0845212 0.00556088 0.0 
0.99862 -0.00918265 0.0 
0.999262 -0.00114401 0.0 
1.00197 -0.00456775 0.0 
0.996525 0.00688712 0.0 
0.998734 0.0045683 0.0 
1.14249 -0.155404 0.0 
1.22861e-08 5.52702e-10 0.0 
1.00171 5.70703e-05 0.0 
1.10701 -0.0390707 0.0 
1.00631 0.0021511 0.0 
0.999348 4.59008e-05 0.0 
1.00092 -0.00414672 0.0 
1.00058 -0.0080255 0.0 
0.999469 0.000554409 0.0 
0.0124282 0.000613736 0.0 
0.999494 -0.00471083 0.0 
1.00022 -0.00042757 0.0 
0.996149 0.00582996 0.0 
1.00091 0.0029676 0.0 
0.00863227 -0.000994348 0.0 
1.00136 -0.00653825 0.0 
0 0 0.0 
1.00257 0.00103034 0.0 
1.00088 -0.000980138 0.0 
1.00348 0.00495036 0.0 
0 0 0.0 
0.993815 -0.0140287 0.0 
0 0 0.0 
0 0 0.0 
0.999341 0.00044879 0.0 
1.00256 0.00307516 0.0 
0.00064867 -0.000115925 0.0 
0.998518 1.54605e-05 0.0 
1.00201 -0.00111325 0.0 
1.00678 0.000410259 0.0 
0.797097 0.251657 0.0 
0.959833 0.0669586 0.0 
1.00255 -0.000715629 0.0 
1.00506 -0.00195917 0.0 
1.00178 0.00027961 0.0 
1.00404 -0.00336633 0.0 
0.998625 -0.00107154 0.0 
1.00537 0.0105061 0.0 
0.999872 0.00698606 0.0 
1.00369 -0.00175762 0.0 
1.00004 0.0003897 0.0 
0.187165 0.0108124 0.0 
1.00298 -0.000201285 0.0 
1.00139 0.00184572 0.0 
0.997516 -0.00301392 0.0 
0.986247 -0.00205729 0.0 
1.00097 -0.00214687 0.0 
0.996421 -0.00193 0.0 
0.996887 -0.00616672 0.0 
1.00184 -0.00286796 0.0 
1.00102 -0.000260638 0.0 
0.998133 -0.00699981 0.0 
1.00859 0.0161777 0.0 
0 0 0.0 
1.00098 -0.0078724 0.0 
0.994857 -0.0013799 0.0 
0.99918 0.00433563 0.0 
1.00098 0.00135132 0.0 
1.00111 0.00208117 0.0 
0.999827 6.90697e-05 0.0 
1.0016 0.000617011 0.0 
0 0 0.0 
1.00216 -0.00278775 0.0 
1.0123 -0.00820927 0.0 
0.999169 -0.000593748 0.0 
0 0 0.0 
0.99768 -0.00808252 0.0 
0 0 0.0 
0.999731 -0.000620463 0.0 
1.00134 -0.00137736 0.0 
0.998179 -0.012388 0.0 
0.978619 -0.00678694 0.0 
0.997062 -0.00205151 0.0 
0.994171 -0.0042811 0.0 
1.00363 -0.00370608 0.0 
1.00123 0.000993834 0.0 
0.999682 -0.00283095 0.0 
0.998642 -0.0104575 0.0 
0.999609 0.000338498 0.0 
1.02751 0.00545674 0.0 
0 0 0.0 
1.00025 0.000604962 0.0 
1.02197 0.015774 0.0 
1.00022 0.00343981 0.0 
0.998474 0.0131815 0.0 
1.00049 -0.00205743 0.0 
0.0119956 -0.00175876 0.0 
1.00304 -0.00304267 0.0 
1.00757 -0.00937226 0.0 
1.00098 0.0016537 0.0 
0.995759 -0.000619007 0.0 
4.32395e-08 8.25059e-10 0.0 
1.0007 0.000813112 0.0 
0.996809 -0.00732722 0.0 
0 0 0.0 
1.00056 -0.00275503 0.0 
1.00278 0.00620579 0.0 
2.6087e-07 -9.18004e-09 0.0 
1.00071 -0.00346788 0.0 
1.00127 -0.00407545 0.0 
0.99693 -0.00164903 0.0 
0.0182404 0.00048945 0.0 
1.00778 0.00152713 0.0 
1.00194 0.000175732 0.0 
1.00254 0.00325231 0.0 
1.01434 0.00152338 0.0 
1.00073 0.000364595 0.0 
1.00033 -0.0010504 0.0 
1.00148 0.000359834 0.0 
1.00021 0.00396304 0.0 
1.00212 -0.00358192 0.0 
0.108239 0.0203525 0.0 
1.00133 -0.00169886 0.0 
0.283576 0.0217581 0.0 
1.0018 -0.00123874 0.0 
1.00014 0.00117301 0.0 
1.00015 0.00274492 0.0 
1.00158 -0.000555571 0.0 
1.00581 6.29069e-05 0.0 
1.00004 0.00189312 0.0 
0.997553 0.00411874 0.0 
1.00199 1.63576e-05 0.0 
1.0247 -0.00800473 0.0 
1.00038 -0.00149826 0.0 
1.00027 0.000965893 0.0 
0 0 0.0 
0.99661 -0.00459278 0.0 
1.00018 -0.0078551 0.0 
0.999781 0.000807474 0.0 
1.00537 0.0217938 0.0 
0.999827 -0.0082919 0.0 
0.998798 -7.46234e-05 0.0 
1.00277 -8.34138e-05 0.0 
0.997814 -0.000915754 0.0 
1.00182 -0.00325962 0.0 
8.82138e-09 1.75221e-10 0.0 
1.00279 0.00212989 0.0 
0.997181 -0.0106208 0.0 
1.00281 -0.00198648 0.0 
1.00406 -0.000868806 0.0 
0.995929 0.00362785 0.0 
0 0 0.0 
0.996875 -0.00058823 0.0 
0.999897 0.000487133 0.0 
1.0007 -0.00423468 0.0 
0 0 0.0 
0.999978 6.44558e-05 0.0 
1.01477 -0.00106943 0.0 
1.00296 -0.000520153 0.0 
0.999349 -0.00165072 0.0 
1.00147 -0.00107132 0.0 
1.00595 -0.00533622 0.0 
0.98224 -0.00915444 0.0 
1.00011 -0.00292887 0.0 
1.00192 0.00100989 0.0 
0.999961 -0.00551627 0.0 
0.999392 7.91121e-05 0.0 
1.0012 -0.00133109 0.0 
1.00242 -0.0025322 0.0 
0.999989 0.00438042 0.0 
1.00629 -0.00816716 0.0 
0.999243 0.000181845 0.0 
1.00151 -0.00118821 0.0 
1.00281 -0.00363446 0.0 
1.00009 0.000342001 0.0 
0.0906391 -0.00561667 0.0 
1.03463 -0.0449975 0.0 
1.00201 9.50776e-05 0.0 
1.00017 0.00115398 0.0 
0.144112 -0.0082085 0.0 
0.998294 -0.00486724 0.0 
0.568228 -0.0552179 0.0 
1.00182 -0.00441282 0.0 
1.00005 -0.000150234 0.0 
0.9978 0.00321195 0.0 
1.00099 -0.00179797 0.0 
1.00115 -0.00613754 0.0 
0.00953446 0.000375971 0.0 
1.00061 -0.000345538 0.0 
1.0005 -0.00178166 0.0 
1.00329 0.000343484 0.0 
0.999387 0.00187863 0.0 
1.00132 -0.00879598 0.0 
0.996105 -0.00509342 0.0 
1.0005 0.00187608 0.0 
0.995055 -0.0100145 0.0 
0.999075 -0.0163117 0.0 
1.00242 0.00171389 0.0 
0.99653 0.000235233 0.0 
1.00097 0.000813121 0.0 
6.41981e-09 4.99612e-10 0.0 
0.999404 4.19568e-05 0.0 
8.19666e-08 3.83157e-08 0.0 
0.999075 -0.00161083 0.0 
0.992055 0.00477738 0.0 
1.00415 -9.11832e-05 0.0 
1.00658 -0.00316045 0.0 
1.00119 -0.0018494 0.0 
1.00166 -0.0117597 0.0 
0 0 0.0 
0.999299 0.000293199 0.0 
0.994713 -0.00140111 0.0 
0.999679 0.000427294 0.0 
0.0900962 0.00134204 0.0 
0.0221157 0.00109097 0.0 
0 0 0.0 
1.00059 0.000572594 0.0 
0.997904 2.10528e-05 0.0 
0.999904 -0.000505572 0.0 
1.00096 -0.00148909 0.0 
1.00323 -0.00261177 0.0 
1.00109 -0.00317769 0.0 
0.997899 -4.60445e-05 0.0 
1.0006 -0.000937942 0.0 
0.998438 -0.0010277 0.0 
0.0527753 -0.0073121 0.0 
0.999545 0.000312932 0.0 
0.98852 -0.00717226 0.0 
1.0132 0.00473653 0.0 
1.00203 0.00132074 0.0 
0.999004 -0.00010255 0.0 
0.997665 -0.0061975 0.0 
1.00058 -0.00556972 0.0 
0.999544 -0.00426882 0.0 
1.00042 0.000290191 0.0 
0.997748 0.000650533 0.0 
1.00006 -0.00830913 0.0 
1.00753 -0.00100376 0.0 
1.00332 -0.000969991 0.0 
1.00204 -0.00132643 0.0 
1.00038 -0.00125808 0.0 
0.985994 -0.00592586 0.0 
0.999611 -0.0093992 0.0 
1.00495 -0.00119577 0.0 
0.999977 -0.00950595 0.0 
1.00355 -0.00839316 0.0 
1.00231 0.00399209 0.0 
1.00494 0.0154202 0.0 
1.01751 0.000195843 0.0 
1.00055 -0.00727089 0.0 
0.486357 0.186692 0.0 
1.00435 0.00381876 0.0 
1.00045 -0.000785017 0.0 
0.998731 -0.00924454 0.0 
1.00226 -0.000134692 0.0 
1.00001 0.000490172 0.0 
0.993393 -0.00939405 0.0 
1.00187 -0.000545925 0.0 
1.00199 0.00266296 0.0 
1.00218 0.00255572 0.0 
1.00321 0.00146844 0.0 
2.64521e-08 -3.34283e-09 0.0 
0.990269 -0.00279787 0.0 
0.998416 0.000419275 0.0 
1.00272 -0.00848791 0.0 
0.999794 -0.000417063 0.0 
1.00057 0.000146249 0.0 
1.00289 -0.001301 0.0 
1.00096 0.00155697 0.0 
1.00029 -0.00510025 0.0 
1.00014 -0.00701959 0.0 
0.998419 -0.00157626 0.0 
0.999933 0.00110586 0.0 
1.00041 -0.00775384 0.0 
1.00515 0.00061222 0.0 
0.997991 -0.0025494 0.0 
0.998401 -0.00330359 0.0 
0.998891 0.00135575 0.0 
1.00039 0.00591212 0.0 
1.00319 0.000998527 0.0 
0 0 0.0 
1.00008 0.00127967 0.0 
0.998687 -0.000806578 0.0 
0.998165 -0.00743326 0.0 
4.98916e-09 -9.06103e-11 0.0 
1.00042 -0.000354769 0.0 
0.996786 -0.00228231 0.0 
0.997656 0.00189817 0.0 
1.00159 -0.00342646 0.0 
0.999281 -0.00730741 0.0 
1.00159 -0.00104003 0.0 
1.00018 0.000578611 0.0 
0 0 0.0 
1.00525 -0.000688538 0.0 
1.00043 -0.00237857 0.0 
1.00146 -0.00233956 0.0 
1.00598 0.00601827 0.0 
0.998601 0.00236981 0.0 
0.999923 0.000227989 0.0 
1.00106 -0.000467556 0.0 
1.00161 -0.00342515 0.0 
0.99949 -0.00853533 0.0 
1.00702 -0.0337184 0.0 
0.999066 0.00115991 0.0 
1.00164 -0.00368155 0.0 
1.00256 4.75384e-05 0.0 
1.00146 -0.000134729 0.0 
0.942372 -0.00761933 0.0 
0 0 0.0 
1.00148 0.000719852 0.0 
0.999215 0.00182376 0.0 
0.989153 0.00258523 0.0 
1.0029 0.000430189 0.0 
0.995401 -0.0084827 0.0 
1.00322 -0.00226145 0.0 
0.999693 0.000120103 0.0 
1.00177 0.000107372 0.0 
0.999283 0.00380037 0.0 
1.00334 -0.00270092 0.0 
0.999391 -0.000522453 0.0 
1.00387 -0.00461283 0.0 
0.999236 -0.000326539 0.0 
1.00193 -0.000330747 0.0 
0.0140026 0.000821972 0.0 
1.01416 -0.00388414 0.0 
1.00838 -0.00497292 0.0 
1.01351 -0.00858868 0.0 
1.00193 -5.82242e-05 0.0 
1.00351 -0.00937314 0.0 
1.00709 0.00119377 0.0 
0 0 0.0 
1.00141 -0.00188932 0.0 
0.733263 -0.137525 0.0 
1.04113 -0.0465965 0.0 
0.997434 0.00562537 0.0 
1.00002 -4.00214e-05 0.0 
0.99793 -0.00523712 0.0 
0.990303 0.000191339 0.0 
1.00078 0.00959901 0.0 
1.00254 -0.000447354 0.0 
0.327122 0.0333262 0.0 
1.00145 0.00395981 0.0 
1.00245 -0.00164251 0.0 
1.00308 -0.00257601 0.0 
0.998295 -0.00539623 0.0 
0 0 0.0 
0.9993 -0.00035113 0.0 
1.00129 -0.00105808 0.0 
0.999311 0.00579473 0.0 
0.999849 -0.00235425 0.0 
1.00168 -0.0009331 0.0 
1.00016 -0.00145698 0.0 
1.00139 -0.00494225 0.0 
0.995065 -0.0139922 0.0 
0.999998 0.000459301 0.0 
0.998707 0.00302729 0.0 
0.998622 0.000629067 0.0 
1.00116 -0.000813985 0.0 
1.00095 -0.00127616 0.0 
1.00152 0.00104037 0.0 
1.05124 -0.22352 0.0 
0.997441 -0.00677631 0.0 
0.998489 0.00558959 0.0 
1.00001 0.000335196 0.0 
1.00308 0.00373075 0.0 
1.00189 0.00283044 0.0 
1.00207 -0.000808871 0.0 
0.999345 -0.000914043 0.0 
1.00032 0.00111052 0.0 
1.00376 -0.0273659 0.0 
1.00653 -0.000667877 0.0 
1.0012 -0.00117823 0.0 
0.999653 0.000355573 0.0 
0.991441 0.000739964 0.0 
1.00037 0.000625305 0.0 
1.00077 -0.000510116 0.0 
0.999263 0.00340209 0.0 
1.00183 -0.00126516 0.0 
0.989474 -0.00676805 0.0 
1.00221 -0.000659633 0.0 
0.997882 -0.00114798 0.0 
1.00114 0.000452787 0.0 
1.00144 -0.00458499 0.0 
1.00079 -0.00167483 0.0 
1.00066 0.000526946 0.0 
1.00102 -0.00102342 0.0 
1.00048 -0.00100612 0.0 
0.999869 0.00160221 0.0 
1.00015 0.000581257 0.0 
1.00073 0.000702463 0.0 
1.00138 -0.000517314 0.0 
1.00121 -0.0013157 0.0 
0.998417 0.00164919 0.0 
1.00043 0.000557767 0.0 
1.00052 0.00113168 0.0 
0.999992 -0.000153041 0.0 
1.00126 -0.000906652 0.0 
0.999414 0.000880033 0.0 
0.999996 -2.67169e-05 0.0 
0.998759 -0.00153751 0.0 
1.00019 -0.000330947 0.0 
1.00003 -4.72509e-05 0.0 
1.0009 -0.00134486 0.0 
0.999278 5.53156e-05 0.0 
0 0 0.0 
0.998885 -0.00345906 0.0 
0.999304 0.00235667 0.0 
0.999612 -0.000434049 0.0 
0.998429 0.00023009 0.0 
1.00243 -0.00172767 0.0 
1.0001 -0.000109947 0.0 
1.0015 -0.00259987 0.0 
1.00267 -0.000477888 0.0 
0 0 0.0 
1.00022 0.000853696 0.0 
1.04989 -0.0727578 0.0 
1.00138 -0.00160937 0.0 
1.00127 -0.00128611 0.0 
0.999019 0.000235172 0.0 
1.00001 0.000145581 0.0 
0.999606 -0.0120923 0.0 
1.00004 -0.00602756 0.0 
1.00064 -0.000481607 0.0 
0 0 0.0 
1.00193 -0.0014639 0.0 
0.998261 0.000780458 0.0 
1.00046 0.000419625 0.0 
0.99966 0.000769221 0.0 
0.986951 -0.00511761 0.0 
1.00133 -0.000625905 0.0 
0.989927 -0.00504487 0.0 
0.997296 0.0545327 0.0 
0.999361 0.00157003 0.0 
0.995102 -0.00114955 0.0 
0.998844 -0.00583728 0.0 
1.00167 0.00499585 0.0 
1.0047 -0.00149587 0.0 
1.00417 0.00200705 0.0 
0.997965 0.00261657 0.0 
0.998997 -0.000201821 0.0 
1.00138 -0.00216885 0.0 
1.00288 -0.00056634 0.0 
1.00143 -0.00364432 0.0 
1.00125 -0.000495822 0.0 
1.00052 -8.3798e-05 0.0 
0.999017 -0.000827061 0.0 
1.00068 0.00075802 0.0 
1.00163 0.0324015 0.0 
1.0014 0.000463178 0.0 
-2.34433e-09 1.92669e-11 0.0 
1.00047 0.00175656 0.0 
0.998104 -0.00296815 0.0 
1.00361 0.00557346 0.0 
1.0058 0.00454588 0.0 
1.00026 -0.00114013 0.0 
1.00033 -0.00126235 0.0 
1.00073 -0.00462309 0.0 
0.999445 -0.00307687 0.0 
1.00107 0.00112645 0.0 
0.999131 -0.000552851 0.0 
0.99489 0.0027354 0.0 
1.00015 -0.00473016 0.0 
0.999479 0.000240548 0.0 
0.998173 -0.00866061 0.0 
0.998332 0.00702042 0.0 
0.993874 -0.00337082 0.0 
0.99499 4.76586e-05 0.0 
1.00226 -0.00120575 0.0 
1.0012 -0.00162869 0.0 
0.998699 -0.000227469 0.0 
1.00016 -0.00770325 0.0 
0.99998 0.00134492 0.0 
0.999209 0.000335924 0.0 
0.999054 0.00170609 0.0 
0.182235 -0.0167744 0.0 
1.00256 0.000756086 0.0 
1.00167 -0.000143422 0.0 
0.997347 0.00132145 0.0 
0.998022 0.000870904 0.0 
0.998847 -1.89239e-05 0.0 
1.0006 0.000700337 0.0 
1.00008 -0.000370897 0.0 
0.992516 -0.00294968 0.0 
0.99927 0.000132071 0.0 
0.0279635 -0.00368782 0.0 