<VTKFile type="UnstructuredGrid" version="0.1" byte_order="LittleEndian">
  <UnstructuredGrid>
    <Piece NumberOfPoints="23679" NumberOfCells="47236">
      <Points>
        <DataArray type = "Float64" NumberOfComponents="3" format="ascii">
-5 -7 0.0 
15.5 -7 0.0 
15.5 7 0.0 
-5 7 0.0 
7.63511 2.91639 0.0 
1.87049 1.67084 0.0 
-0.605974 -0.287769 0.0 
2.37337 -3.10656 0.0 
0.929906 2.48659 0.0 
0.824948 -0.0289232 0.0 
0.579762 -2.6174 0.0 
2.75639 -0.320238 0.0 
0.600589 -0.0279367 0.0 
0.809974 0.0358912 0.0 
4.52511 -0.0925724 0.0 
0.692729 -0.023898 0.0 
2.14598 1.71184 0.0 
4.47114 -0.725108 0.0 
2.94972 0.812693 0.0 
-2.51884 -5.20772 0.0 
0.933054 -0.00978829 0.0 
-3.39004 -0.0550254 0.0 
0.209319 0.0741243 0.0 
-0.14562 -1.1416 0.0 
0.16355 -0.0415655 0.0 
4.37129 -0.146188 0.0 
0.125896 0.0617342 0.0 
2.89507 -0.00321849 0.0 
0.117818 -0.0547525 0.0 
0.74577 -0.0190427 0.0 
1.20907 -2.59566 0.0 
7.05945 1.36908 0.0 
1.18414 0.837326 0.0 
-0.664239 0.00933663 0.0 
0.988285 -0.635056 0.0 
0.79931 -0.0154644 0.0 
-0.169857 -0.752454 0.0 
-0.535193 0.781979 0.0 
4.50646 0.336854 0.0 
0.675201 -0.447934 0.0 
4.33956 3.92927 0.0 
7.20401 -0.547152 0.0 
5.06202 0.761268 0.0 
-1.83764 -0.830466 0.0 
2.97447 -2.59497 0.0 
1.77447 -4.2029 0.0 
0.203756 0.0741702 0.0 
2.3905 -0.208726 0.0 
-2.38226 0.0491773 0.0 
1.57579 -4.90006 0.0 
0.892623 0.876713 0.0 
0.619187 0.0692661 0.0 
1.81524 2.22933 0.0 
3.20393 -0.375619 0.0 
0.560088 -0.0307549 0.0 
-4.00064 -1.06423 0.0 
4.1637 1.41296 0.0 
2.03909 0.577378 0.0 
3.97155 -0.451817 0.0 
-1.0713 0.305678 0.0 
1.24518 -0.853569 0.0 
5.30713 0.379083 0.0 
0.993214 0.00283989 0.0 
0.513972 -3.72515 0.0 
4.25372 1.90694 0.0 
0.87556 0.025233 0.0 
0.401296 0.0780688 0.0 
0.44761 -0.0359067 0.0 
-3.06259 -0.640688 0.0 
0.58449 -3.29242 0.0 
4.47137 0.702541 0.0 
-0.523713 -0.272593 0.0 
-0.477755 -0.422453 0.0 
0.570246 -0.533547 0.0 
0.538433 -0.0310055 0.0 
5.2741 -1.01059 0.0 
2.21102 -1.39328 0.0 
1.30783 -0.274121 0.0 
4.18709 -1.48886 0.0 
-1.19726 -3.28581 0.0 
-0.0359698 -1.75399 0.0 
0.617039 -0.0263973 0.0 
5.83653 0.150199 0.0 
5.57946 0.224905 0.0 
0.377841 -0.038928 0.0 
1.38254 1.36675 0.0 
2.58372 -1.06479 0.0 
4.70454 -3.6075 0.0 
0.551438 0.113173 0.0 
0.532912 -0.0384617 0.0 
-0.392031 -0.729994 0.0 
4.38556 1.53498 0.0 
-1.34387 -2.96962 0.0 
4.73748 -0.295427 0.0 
5.13252 -2.84762 0.0 
5.34987 1.08334 0.0 
0.326684 0.0802051 0.0 
1.0681 0.191919 0.0 
0.292684 0.0800176 0.0 
-0.288073 -0.693253 0.0 
0.850052 0.029488 0.0 
7.72674 -2.22661 0.0 
5.73402 0.253504 0.0 
3.27298 3.73283 0.0 
2.31769 -0.889324 0.0 
3.24694 -2.57408 0.0 
-0.795775 -5.8192 0.0 
0.667923 -0.0361302 0.0 
0.835769 0.0314682 0.0 
4.69839 -1.50939 0.0 
4.91709 3.01814 0.0 
0.151849 -0.0409087 0.0 
3.55148 0.264681 0.0 
0.842117 -0.794382 0.0 
2.65591 1.43349 0.0 
0.932811 0.0144733 0.0 
-0.764917 -0.926758 0.0 
3.60734 -0.915315 0.0 
-0.605852 0.649115 0.0 
5.76621 -0.263827 0.0 
3.08877 -0.924843 0.0 
0.899825 -0.00795866 0.0 
6.80384 1.26814 0.0 
3.19847 -0.826277 0.0 
0.0166341 -0.0962489 0.0 
3.983 -1.51439 0.0 
5.81155 1.05052 0.0 
0.403773 -0.0376754 0.0 
4.06583 -0.737319 0.0 
3.85222 3.16404 0.0 
7.27994 -0.917065 0.0 
7.01199 -1.44503 0.0 
5.44634 0.7472 0.0 
5.43495 -0.0201864 0.0 
1.51213 -0.834065 0.0 
1.97076 0.806002 0.0 
0.634487 0.0595385 0.0 
-0.572414 -4.29099 0.0 
1.8826 -0.733417 0.0 
0.759381 -0.180619 0.0 
0.40132 0.0778474 0.0 
0.23454 -0.0430222 0.0 
-0.802406 2.95957 0.0 
0.691963 0.0549995 0.0 
5.47277 -0.740356 0.0 
14.1487 4.94071 0.0 
0.0736498 -1.30758 0.0 
-3.24273 0.882011 0.0 
1.37104 -0.876055 0.0 
-0.483647 -0.194829 0.0 
2.83565 1.06937 0.0 
5.52957 -1.21731 0.0 
0.947149 -0.00912481 0.0 
-0.408161 -0.611461 0.0 
-0.824132 1.91234 0.0 
-0.28194 0.734853 0.0 
-2.58987 -0.112571 0.0 
5.39673 0.0810302 0.0 
0.347037 -1.34491 0.0 
1.28521 2.08402 0.0 
0.220369 -0.0424097 0.0 
-0.490215 0.575937 0.0 
1.64934 -1.3049 0.0 
0.153085 0.0664047 0.0 
-0.251695 -2.55503 0.0 
0.826156 -0.0139773 0.0 
3.35673 0.186652 0.0 
4.62807 -2.39408 0.0 
-1.05781 -1.39579 0.0 
-2.54531 4.21509 0.0 
1.60336 1.51116 0.0 
0.713093 0.0498095 0.0 
0.643534 0.0642145 0.0 
-3.64101 4.81173 0.0 
-1.26922 -3.94313 0.0 
-0.342655 -1.12768 0.0 
3.30326 0.952175 0.0 
5.64264 0.331249 0.0 
1.34559 -0.214642 0.0 
1.60527 0.321358 0.0 
0.328683 -0.0401423 0.0 
3.81728 0.37784 0.0 
4.37562 0.758715 0.0 
5.5831 -1.82905 0.0 
-1.49688 0.101849 0.0 
-1.70027 -0.343758 0.0 
0.937041 0.0136815 0.0 
5.60623 1.42522 0.0 
-1.23169 -0.42816 0.0 
1.69627 2.52442 0.0 
1.36245 -1.5082 0.0 
1.25107 -3.80948 0.0 
2.74679 0.528168 0.0 
5.36614 -1.19177 0.0 
0.605019 1.16677 0.0 
-4.58423 -1.62108 0.0 
-2.02651 2.34708 0.0 
3.99339 3.63024 0.0 
-1.36142 -0.0750085 0.0 
5.19766 -0.482867 0.0 
-3.85513 -1.43107 0.0 
0.966422 0.00919783 0.0 
0.247834 0.0870881 0.0 
-0.465649 -0.817954 0.0 
4.29025 4.26714 0.0 
1.18312 -0.431176 0.0 
9.21986 0.0258833 0.0 
5.39136 -0.625475 0.0 
5.56604 0.611257 0.0 
1.96388 -1.61685 0.0 
0.196106 -0.0423443 0.0 
2.93186 0.364486 0.0 
5.88518 0.822328 0.0 
0.824138 -0.0139123 0.0 
-0.47228 -0.526413 0.0 
0.477118 -0.0338206 0.0 
-4.64673 -2.62107 0.0 
4.10712 -0.887195 0.0 
0.710355 0.0501717 0.0 
1.64936 -0.864917 0.0 
-1.61346 -3.22424 0.0 
0.0092848 0.0284272 0.0 
7.26993 2.53793 0.0 
1.1048 2.83071 0.0 
10.1588 1.30502 0.0 
-0.263385 -0.26391 0.0 
13.7005 7 0.0 
0.52333 0.0703707 0.0 
4.58595 -1.29531 0.0 
5.62067 -0.188463 0.0 
0.799738 -0.0147854 0.0 
11.9625 -2.20661 0.0 
5.40435 0.619553 0.0 
3.28687 -1.45096 0.0 
0.458966 0.0872446 0.0 
5.51568 -0.596029 0.0 
-1.63011 3.37507 0.0 
0.293181 -0.0414659 0.0 
0.865321 -2.71027 0.0 
0.786038 -0.0158333 0.0 
0.0736186 0.0492692 0.0 
4.13993 -2.76136 0.0 
0.881421 -0.0921271 0.0 
0.266317 -3.38104 0.0 
4.88629 -0.852705 0.0 
0.437008 0.076424 0.0 
3.8816 4.12562 0.0 
7.92184 -0.0908268 0.0 
0.176354 -0.0480078 0.0 
-0.662142 0.143724 0.0 
6.26015 0.128606 0.0 
0.915518 -0.00670685 0.0 
3.62021 -1.04763 0.0 
1.34876 0.720027 0.0 
0.982357 -3.49725 0.0 
0.663709 0.0566737 0.0 
5.3066 -0.705713 0.0 
-0.944514 -3.61431 0.0 
1.79294 -0.661223 0.0 
-0.342215 2.27409 0.0 
5.88842 -0.367403 0.0 
0.211839 -0.0420107 0.0 
0.654413 -0.0369233 0.0 
3.68564 6.54289 0.0 
5.00064 1.8515 0.0 
0.69027 0.0546811 0.0 
1.12166 0.441142 0.0 
7.31715 -3.60167 0.0 
2.79958 1.64327 0.0 
0.433465 0.0764782 0.0 
0.584196 0.0652607 0.0 
0.0636322 -0.695974 0.0 
-1.81416 1.63551 0.0 
0.74075 0.0465749 0.0 
2.69342 -1.49048 0.0 
4.86008 -1.00044 0.0 
0.822907 -0.0142337 0.0 
-0.164664 0.307939 0.0 
4.48127 5.51069 0.0 
4.4895 -4.79993 0.0 
5.37438 1.55243 0.0 
0.123991 1.28664 0.0 
6.41782 -0.499678 0.0 
3.16721 -0.70129 0.0 
1.99155 -0.729552 0.0 
4.69954 4.16905 0.0 
-1.91695 -2.36563 0.0 
8.09216 1.16816 0.0 
0.242046 0.0802658 0.0 
2.34355 2.47663 0.0 
2.72841 -0.285972 0.0 
13.5916 6.05949 0.0 
1.64671 4.40597 0.0 
3.03209 1.84093 0.0 
-0.498111 0.662759 0.0 
0.765551 -2.10462 0.0 
5.25655 0.61914 0.0 
6.04759 -2.75505 0.0 
1.12471 -0.237361 0.0 
6.40695 -2.14103 0.0 
4.37139 0.883681 0.0 
0.240004 -0.042139 0.0 
-4.55867 -4.42627 0.0 
-1.09286 3.96435 0.0 
-1.07351 0.572111 0.0 
3.73338 -0.828021 0.0 
-0.766762 -0.403459 0.0 
0.402752 -1.68281 0.0 
0.925255 0.0164317 0.0 
0.88786 -0.943606 0.0 
0.505244 -0.025873 0.0 
-0.299243 0.0389379 0.0 
3.36416 0.723434 0.0 
0.636773 1.7916 0.0 
0.0435288 1.09333 0.0 
0.74756 2.65039 0.0 
5.12608 -1.02106 0.0 
3.05399 0.794214 0.0 
3.3685 -2.29577 0.0 
9.40833 4.18552 0.0 
0.726496 1.10014 0.0 
-1.43587 -0.265452 0.0 
1.53809 -0.965095 0.0 
3.65342 -1.2467 0.0 
3.58193 2.86195 0.0 
1.58453 1.05649 0.0 
0.69113 -0.0216886 0.0 
4.67304 -0.737386 0.0 
2.403 -2.53676 0.0 
-0.883615 -1.03632 0.0 
0.570985 0.067201 0.0 
4.5489 1.01634 0.0 
1.30188 0.95494 0.0 
4.78484 -2.98767 0.0 
0.647276 3.74647 0.0 
1.64058 -1.98991 0.0 
5.60464 1.66025 0.0 
-2.46641 -2.76999 0.0 
0.0236771 0.0292808 0.0 
1.83737 -2.85625 0.0 
0.712397 -0.0207427 0.0 
-0.929233 -3.15638 0.0 
5.62429 -0.0217768 0.0 
0.696715 -0.0236006 0.0 
4.31467 0.462465 0.0 
1.90518 -1.00498 0.0 
3.8123 -0.317197 0.0 
-1.40698 0.43063 0.0 
8.12686 0.163945 0.0 
0.0912505 -0.0517404 0.0 
0.360402 0.0788181 0.0 
0.766222 5.08386 0.0 
0.543306 0.227627 0.0 
0.768677 -0.887089 0.0 
13.8069 6.49329 0.0 
3.14545 -0.527242 0.0 
3.00213 0.685174 0.0 
-3.26851 -1.17579 0.0 
0.326091 -0.0407782 0.0 
-0.350969 -1.28117 0.0 
-1.34372 -4.38367 0.0 
-1.47047 0.274883 0.0 
8.69891 -0.824176 0.0 
0.572752 0.0666296 0.0 
3.02391 1.56815 0.0 
0.546825 -0.0304958 0.0 
7.53034 -2.92118 0.0 
0.862614 -3.9233 0.0 
7.46433 -0.686568 0.0 
0.435695 0.0763326 0.0 
-0.291216 -0.600905 0.0 
0.958024 -0.00418663 0.0 
0.996359 0.00209859 0.0 
-3.04054 -1.35802 0.0 
7.86523 -1.29492 0.0 
0.824153 0.0339519 0.0 
-2.0843 -1.39076 0.0 
2.0242 4.23744 0.0 
6.10554 -1.09258 0.0 
0.070474 0.0518922 0.0 
0.253412 0.0852338 0.0 
4.90662 -3.37133 0.0 
5.3389 -1.37998 0.0 
8.18441 -5.4394 0.0 
4.74018 -1.11041 0.0 
-1.45792 -1.69797 0.0 
-0.658439 1.28669 0.0 
-1.47154 1.02941 0.0 
0.548603 -1.30682 0.0 
-4.28372 4.01846 0.0 
0.597388 -0.031556 0.0 
0.976283 3.91053 0.0 
-1.97604 3.44687 0.0 
-0.823498 -1.2495 0.0 
-0.676338 -0.322971 0.0 
0.0194499 -2.00073 0.0 
6.06625 2.2173 0.0 
4.77636 1.32682 0.0 
3.5286 -1.40716 0.0 
2.2348 6.10147 0.0 
4.3501 1.14584 0.0 
-0.374853 0.997283 0.0 
0.331239 -0.0398749 0.0 
2.92416 0.944765 0.0 
-1.08711 -0.79613 0.0 
-2.10643 0.811211 0.0 
10.0853 -2.20029 0.0 
9.19723 -1.4685 0.0 
-3.63493 -2.23583 0.0 
9.13289 -4.40814 0.0 
0.13646 -0.0401233 0.0 
3.73879 -1.49966 0.0 
1.16246 1.31001 0.0 
1.76621 -0.985528 0.0 
0.279409 0.0783782 0.0 
4.49882 0.813878 0.0 
0.0773295 0.0501322 0.0 
-1.7711 -2.7915 0.0 
2.21785 -2.83793 0.0 
1.9729 0.35934 0.0 
6.07917 0.172121 0.0 
-1.06801 -1.19434 0.0 
-0.742511 -0.787541 0.0 
4.55801 -0.996424 0.0 
10.0032 -3.21238 0.0 
4.23955 3.27 0.0 
4.4588 0.213546 0.0 
-3.41169 -1.50587 0.0 
0.374392 0.944982 0.0 
[...]
<PointData>
  <DataArray type = "Float64" Name="VitesseP1" NumberOfComponents="3" format="ascii">
1 0 0.0 
1.00013 0 0.0 
0.999883 0 0.0 
1 0 0.0 
0.999643 0.000115636 0.0 
0.999939 -0.00740238 0.0 
0.984613 -0.00606961 0.0 
1.00196 0.000285729 0.0 
1.00389 -0.00261675 0.0 
0.688206 0.0437359 0.0 
1.00224 -0.00129502 0.0 
1.00592 0.00894597 0.0 
0.0128236 0.000397416 0.0 
0 0 0.0 
0.999091 0.00198816 0.0 
0.101394 0.00635746 0.0 
0.998577 -0.00610123 0.0 
0.999944 0.00212628 0.0 
0.99236 -0.000505783 0.0 
1.00024 -0.000452991 0.0 
0.180897 0.0121044 0.0 
0.999477 0.00107857 0.0 
0.0792523 0.00965475 0.0 
1.00272 -0.00752236 0.0 
1.22598e-08 -5.1018e-10 0.0 
0.999089 0.00224184 0.0 
3.17467e-08 7.0179e-09 0.0 
0.997204 0.0140069 0.0 
1.14942 -0.11462 0.0 
0.0216879 0.00202443 0.0 
1.0025 -0.000591629 0.0 
0.999557 0.000361161 0.0 
1.0078 -0.0232631 0.0 
0.982771 0.00444506 0.0 
1.00526 0.00677348 0.0 
0.0159932 0.000760668 0.0 
1.0017 -0.0142545 0.0 
1.00179 0.0151244 0.0 
0.998561 0.0016479 0.0 
1.01925 0.0120624 0.0 
0.999634 -0.000601613 0.0 
0.999883 0.000617246 0.0 
0.99883 0.000904875 0.0 
0.997344 -0.000697122 0.0 
1.00194 0.000852468 0.0 
1.0015 -0.000118179 0.0 
0.177324 0.01786 0.0 
1.01644 0.00494086 0.0 
0.998188 0.00160223 0.0 
1.00128 -0.000145618 0.0 
1.0185 -0.0192241 0.0 
0.468952 -0.0477502 0.0 
1.00102 -0.00459912 0.0 
1.0009 0.00624861 0.0 
0.0336344 0.0020561 0.0 
0.999834 0.000387604 0.0 
0.997846 0.00010774 0.0 
0.986276 -0.0142384 0.0 
0.999652 0.00308171 0.0 
0.993221 0.00636442 0.0 
1.00375 0.00190442 0.0 
0.999153 0.00105505 0.0 
-2.29587e-09 -9.55735e-10 0.0 
1.00146 -0.000754752 0.0 
0.998328 -0.000343298 0.0 
0.00158751 -0.000276835 0.0 
3.46972e-08 -4.73996e-10 0.0 
0 0 0.0 
0.99914 0.000524881 0.0 
1.00169 -0.000872505 0.0 
0.998223 0.00121448 0.0 
0.982127 -0.00828112 0.0 
0.987793 -0.0121631 0.0 
1.02045 0.00445258 0.0 
0 0 0.0 
1.00003 0.00136554 0.0 
1.00376 0.000974437 0.0 
0.989987 0.000911523 0.0 
1.00088 0.00189403 0.0 
1.00051 -0.0012377 0.0 
1.00245 -0.00365061 0.0 
0 0 0.0 
0.999466 0.000915111 0.0 
0.999353 0.000997636 0.0 
3.45182e-08 1.57216e-09 0.0 
1.00373 -0.011408 0.0 
1.00417 0.00225998 0.0 
1.00096 0.000634934 0.0 
1.13596 -0.0747436 0.0 
0.408966 0.0219001 0.0 
0.996665 -0.0119699 0.0 
0.998192 9.71508e-05 0.0 
1.00027 -0.00140053 0.0 
0.999419 0.00180788 0.0 
1.00076 0.000856859 0.0 
0.998963 0.000615904 0.0 
0.120923 0.000472976 0.0 
0.988854 -0.0734498 0.0 
0.153356 0.00379398 0.0 
0.997727 -0.014457 0.0 
5.97991e-09 -1.058e-09 0.0 
1.00019 0.000499326 0.0 
0.999396 0.000925645 0.0 
0.999891 -0.00112066 0.0 
1.00542 0.00135478 0.0 
1.00176 0.000978065 0.0 
1.00069 -0.000284314 0.0 
0.636689 0.0382383 0.0 
0 0 0.0 
1.00052 0.00156499 0.0 
0.999246 -0.000366492 0.0 
0 0 0.0 
0.996623 0.00368608 0.0 
1.00834 0.00340341 0.0 
0.995781 -0.00412818 0.0 
0 0 0.0 
0.996439 -0.00589643 0.0 
1.0011 0.00321256 0.0 
0.997972 0.0155056 0.0 
0.999632 0.00104905 0.0 
1.00272 0.00365313 0.0 
0 0 0.0 
0.999514 0.000397049 0.0 
1.00219 0.00401541 0.0 
1.00341 -0.176876 0.0 
1.00108 0.00197625 0.0 
0.999216 0.000573411 0.0 
0 0 0.0 
1.00017 0.00270207 0.0 
0.999349 -0.000973685 0.0 
0.999965 0.000616723 0.0 
1.00008 0.000675474 0.0 
0.999092 0.000797762 0.0 
0.999422 0.00116046 0.0 
1.00304 0.000324487 0.0 
0.991478 -0.0136732 0.0 
0 0 0.0 
1.00084 -0.000745112 0.0 
1.0046 -0.00109099 0.0 
1.01811 0.0381659 0.0 
0 0 0.0 
0.0468839 0.000476124 0.0 
1.00265 0.00148902 0.0 
0.0891466 -0.0112665 0.0 
0.999856 0.00125837 0.0 
0.999886 1.87655e-05 0.0 
1.00419 -0.00556816 0.0 
0.999712 0.00181204 0.0 
1.00328 0.00108504 0.0 
0.977554 -0.0071218 0.0 
0.993645 -0.00250402 0.0 
1.00011 0.00119586 0.0 
0.19427 0.0127921 0.0 
0.993761 -0.0132646 0.0 
1.00365 0.00392726 0.0 
1.00719 0.0207211 0.0 
0.998511 0.00125893 0.0 
0.999349 0.00114519 0.0 
1.00529 -0.00369946 0.0 
1.0035 -0.00498183 0.0 
7.79221e-09 -2.0753e-10 0.0 
0.997542 0.0196968 0.0 
1.00379 0.000299766 0.0 
0 0 0.0 
1.00138 -0.00200814 0.0 
0.0307433 0.00233661 0.0 
0.996035 0.00502793 0.0 
1.00089 0.00113452 0.0 
0.998517 -0.00339441 0.0 
1.00071 0.00113472 0.0 
1.0013 -0.00938387 0.0 
0 0 0.0 
0.305857 -0.0341095 0.0 
1.00019 0.000554306 0.0 
1.00054 -0.000888156 0.0 
1.00075 -0.0076259 0.0 
0.995044 0.000147831 0.0 
0.999326 0.000928547 0.0 
0.988121 -0.00253211 0.0 
0.984762 -0.027752 0.0 
0 0 0.0 
0.997242 0.00256249 0.0 
0.998055 0.00116956 0.0 
1.00037 0.00105389 0.0 
0.995438 0.0028951 0.0 
0.99621 0.000608837 0.0 
0 0 0.0 
0.999097 0.000409727 0.0 
0.994017 -0.000848311 0.0 
1.00162 -0.0036168 0.0 
1.00395 -4.52473e-05 0.0 
1.00163 -0.000374422 0.0 
0.988032 0.00065208 0.0 
1.00012 0.00128214 0.0 
1.01763 -0.00598661 0.0 
0.999985 9.53606e-05 0.0 
1.00106 0.00255823 0.0 
0.999564 -0.000804436 0.0 
0.994189 0.00189278 0.0 
0.999671 0.00142507 0.0 
0.999789 0.000241063 0.0 
-0.00417128 0.000928199 0.0 
1.09831 0.0822166 0.0 
0.997187 -0.00990295 0.0 
0.999776 -0.000554457 0.0 
0.996822 0.00690888 0.0 
0.999909 0.00030645 0.0 
0.999784 0.00130481 0.0 
0.999193 0.000834229 0.0 
1.00351 0.000530071 0.0 
1.95765e-08 -9.82005e-10 0.0 
0.990055 0.00474022 0.0 
0.999283 0.000658283 0.0 
0.0206157 0.00134613 0.0 
0.99093 -0.0121993 0.0 
0 0 0.0 
1 1.74271e-05 0.0 
1.00036 0.00251785 0.0 
0 0 0.0 
1.00356 -0.000163047 0.0 
1.00027 -0.00117787 0.0 
0.677747 0.490909 0.0 
0.999586 0.000149807 0.0 
1.0028 -0.002254 0.0 
0.99987 0.000189472 0.0 
0.975698 -0.0262584 0.0 
0.999872 0 0.0 
0 0 0.0 
1.00044 0.00176009 0.0 
0.999564 0.00110673 0.0 
0 0 0.0 
1.00008 0.000140106 0.0 
0.999107 0.000880799 0.0 
1.00208 0.00227302 0.0 
0.885234 -0.04171 0.0 
0.999774 0.00122819 0.0 
1.00147 0.00146699 0.0 
1.76423e-08 8.01352e-10 0.0 
1.0023 -0.000941021 0.0 
0 0 0.0 
7.04007e-08 2.12362e-08 0.0 
1.00119 0.000988545 0.0 
0.998636 0.0500753 0.0 
1.0015 -0.0010178 0.0 
0.999977 0.00167029 0.0 
0 0 0.0 
0.999822 -0.000723164 0.0 
0.999851 0.000459426 0.0 
0.692792 -0.0259508 0.0 
0.984302 0.00917879 0.0 
0.999585 0.000776381 0.0 
0 0 0.0 
1.00125 0.00291576 0.0 
1.00122 -0.025755 0.0 
1.00171 -0.000580698 0.0 
0.00701932 -0.000849446 0.0 
0.999833 0.00136172 0.0 
1.00069 -0.0010984 0.0 
1.00376 -0.00175726 0.0 
1.00473 0.00190636 0.0 
0.9997 0.00101134 0.0 
0 0 0.0 
0.639122 0.0380235 0.0 
1.00022 -0.000107977 0.0 
0.998801 9.21161e-05 0.0 
0.0629949 -0.00784903 0.0 
1.005 -0.0447788 0.0 
1.00041 0.000418942 0.0 
0.996804 -0.00331823 0.0 
0 0 0.0 
1.02494e-08 -7.10567e-10 0.0 
1.00888 -0.0154561 0.0 
1.00073 0.00352698 0.0 
0.0059975 -0.000813577 0.0 
1.00311 0.001726 0.0 
1.0001 0.00166245 0.0 
0.032621 0.00195052 0.0 
0.988001 0.0545078 0.0 
0.999991 -0.000271026 0.0 
1.00099 0.000326459 0.0 
0.998973 0.000335075 0.0 
1.01332 0.0039017 0.0 
0.999811 0.000824233 0.0 
1.00221 0.00460576 0.0 
1.00527 -0.000758358 0.0 
0.999678 -0.000445342 0.0 
0.999677 -0.00130047 0.0 
0.99973 0.00031756 0.0 
0.562068 0.0410155 0.0 
0.999755 -0.00325548 0.0 
1.00653 0.00963286 0.0 
0.999873 1.0272e-05 0.0 
1.00107 -0.00087354 0.0 
0.997476 -0.00244234 0.0 
0.999426 0.0178206 0.0 
1.00308 -0.00136335 0.0 
0.999019 0.000936536 0.0 
1.00049 0.00072578 0.0 
0.98619 0.0133727 0.0 
1.0003 0.000759949 0.0 
0.998036 0.000975968 0.0 
0 0 0.0 
1.00001 -1.67022e-05 0.0 
1.00161 0.000817822 0.0 
0.996168 0.00786306 0.0 
1.00072 0.00316875 0.0 
0.989973 -0.0045699 0.0 
1.00388 -0.00271187 0.0 
2.53534e-09 -6.11938e-10 0.0 
1.00698 0.00156307 0.0 
0 0 0.0 
0.95304 0.0115641 0.0 
0.994887 0.00145815 0.0 
1.00832 -0.00314427 0.0 
1.01586 0.00832722 0.0 
1.00382 -0.00181465 0.0 
1.00006 0.00145786 0.0 
0.992965 0.000194455 0.0 
1.00177 0.00120893 0.0 
0.999783 6.54547e-05 0.0 
1.01733 -0.00976881 0.0 
0.994967 0.000650828 0.0 
1.00347 0.000384404 0.0 
1.00134 0.0025469 0.0 
0.999127 -0.00129297 0.0 
0.999606 -0.0153418 0.0 
0 0 0.0 
0.999906 0.00188927 0.0 
1.0023 0.000521798 0.0 
0.997201 -0.00483872 0.0 
0.0346098 -0.0027113 0.0 
0.998254 0.000761274 0.0 
1.00494 -0.0193911 0.0 
1.0009 0.000851737 0.0 
1.00206 -0.00066094 0.0 
1.00316 3.79176e-06 0.0 
0.999098 0.00029552 0.0 
0.999839 -0.000945158 0.0 
5.7856e-08 2.91031e-08 0.0 
1.00225 -1.48418e-05 0.0 
2.94538e-08 2.21243e-09 0.0 
1.00065 -0.00138171 0.0 
0.99948 0.00106151 0.0 
0.0984334 0.0065068 0.0 
0.998177 0.00167415 0.0 
1.00426 0.000138923 0.0 
0.999348 0.00357059 0.0 
0.996127 0.00477316 0.0 
0.999832 0.000411434 0.0 
1.15233 -0.15765 0.0 
1.29832e-08 5.56331e-10 0.0 
1.00119 -0.000299539 0.0 
1.10819 -0.0453373 0.0 
1.00879 0.00140497 0.0 
0.999874 5.06637e-06 0.0 
1.00191 0.00562032 0.0 
0.992221 0.000840305 0.0 
0.999449 0.000128529 0.0 
0.0124267 0.00061404 0.0 
1.00087 -0.00621156 0.0 
1.00055 -0.000719935 0.0 
0.995824 0.00379821 0.0 
0.999981 0.000386824 0.0 
0.0106723 -0.00123027 0.0 
0.996494 -0.00243201 0.0 
0 0 0.0 
1.00031 0.00047047 0.0 
1.00149 -0.000521268 0.0 
0.999925 0.000572022 0.0 
0 0 0.0 
0.995852 -0.0167173 0.0 
0 0 0.0 
0 0 0.0 
0.999331 -0.000140999 0.0 
1.00004 0.000508696 0.0 
0.00388526 -0.000770333 0.0 
0.998624 -0.00100011 0.0 
1.00085 -0.00105677 0.0 
1.00001 0.000956102 0.0 
0.796243 0.2512 0.0 
0.967079 0.0670515 0.0 
1.00089 0.000704165 0.0 
1.00023 0.00125987 0.0 
1.00043 0.000159195 0.0 
1.00023 0.00171812 0.0 
0.998996 -0.00218261 0.0 
1.00407 0.00785958 0.0 
0.999272 0.00516404 0.0 
1.00585 -0.00243812 0.0 
1.00003 0.000377973 0.0 
0.206321 0.0120954 0.0 
1.00174 -0.000857315 0.0 
1.0012 0.00152334 0.0 
0.998375 -0.00458147 0.0 
0.987105 -0.00514579 0.0 
1.00219 -0.00282984 0.0 
0.999314 0.00013751 0.0 
0.998521 0.000431126 0.0 
1.00166 0.00231788 0.0 
1.00063 -0.000240992 0.0 
0.997974 0.00058054 0.0 
1.00706 0.0128106 0.0 
0 0 0.0 
0.993158 -0.00143022 0.0 
0.99542 -0.00329401 0.0 
0.998826 0.00318183 0.0 
1.00011 0.000248122 0.0 
1.00005 0.000336412 0.0 
0.999843 -9.91451e-05 0.0 
1.0003 0.000206576 0.0 
0 0 0.0 
1.00138 0.00211062 0.0 
1.00716 -0.0117876 0.0 
1.0039 -1.11362e-05 0.0 
0 0 0.0 
0.998227 0.00104094 0.0 
0 0 0.0 
0.999994 -0.00126975 0.0 
1.00218 0.000267108 0.0 
0.981763 -0.0179747 0.0 
0.999527 0.000822356 0.0 
0.997691 -0.00360553 0.0 
0.995165 -0.00644376 0.0 
1.00021 0.00192205 0.0 
1.00018 0.000223069 0.0 
0.999355 -0.000718206 0.0 
0.998644 0.0018328 0.0 
0.99961 5.64654e-06 0.0 
1.02468 0.000865826 0.0 
0 0 0.0 
1.00004 8.45745e-05 0.0 
1.0198 0.0116474 0.0 
0.999919 0.000380909 0.0 
0.997651 0.0103105 0.0 
1.00358 0.00137085 0.0 
0.0392798 -0.00619706 0.0 
1.00066 0.00193581 0.0 
1.00095 -0.0117067 0.0 
1.00089 0.0015577 0.0 
0.996136 -0.00236543 0.0 
4.53167e-08 8.3368e-10 0.0 
1.00011 0.000144347 0.0 
0.998473 0.000765749 0.0 
0 0 0.0 
1.00349 0.0024379 0.0 
1.00191 0.00450353 0.0 
2.55625e-07 -9.00588e-09 0.0 
1.00339 0.00396859 0.0 
0.999001 -0.00185847 0.0 
0.999387 5.9529e-05 0.0 
0.0184195 0.000495233 0.0 
1.00555 -0.000542588 0.0 
1.00053 0.000182847 0.0 
1.00195 0.00226751 0.0 
1.01132 -0.00177676 0.0 
1.00014 6.54401e-05 0.0 
1.00098 -0.0015342 0.0 
1.00031 0.000122968 0.0 
0.999838 0.00307923 0.0 
1.0009 0.00285527 0.0 
0.109414 0.0205711 0.0 
1.00238 0.000858618 0.0 
0.28885 0.0221308 0.0 
1.00371 -0.00117516 0.0 
1.00013 0.00122319 0.0 
0.999963 0.00247921 0.0 
1.00117 0.00016765 0.0 
1.00012 0.000954146 0.0 
0.999985 0.00190223 0.0 
1.00096 0.00221351 0.0 
1.00066 0.000167675 0.0 
1.02063 -0.0131486 0.0 
1.00368 0.00072335 0.0 
1.00003 0.000145729 0.0 
0 0 0.0 
0.998863 0.000220052 0.0 
0.995454 0.00179911 0.0 
0.999955 0.000109568 0.0 
1.00394 0.0181285 0.0 
0.986177 0.00403494 0.0 
0.999776 -2.04178e-06 0.0 
1.00062 0.000596524 0.0 
0.99962 0.000869874 0.0 
0.99961 0.00095903 0.0 
9.5403e-09 1.4829e-10 0.0 
1.00215 0.00127981 0.0 
0.99878 0.00150573 0.0 
1.00087 -0.00185781 0.0 
1.00208 -0.00167584 0.0 
0.995823 0.00184454 0.0 
0 0 0.0 
0.997201 -0.00209262 0.0 
0.999911 0.000476897 0.0 
0.998741 -0.00153074 0.0 
0 0 0.0 
0.999979 6.33334e-05 0.0 
0.999689 0.000937416 0.0 
1.0007 0.000750568 0.0 
1.00454 0.000346352 0.0 
1.00159 0.000230138 0.0 
1.00111 -0.00600361 0.0 
0.999532 0.00100308 0.0 
1.00125 -0.00404828 0.0 
1.00027 0.000330463 0.0 
0.997867 -0.000888693 0.0 
0.999879 8.34434e-06 0.0 
1.0023 -0.000319731 0.0 
1.00123 0.00181312 0.0 
0.999573 0.00330019 0.0 
0.996975 0.00479706 0.0 
0.999863 2.47956e-05 0.0 
1.00056 -0.000887697 0.0 
1.00047 0.00233158 0.0 
1.00009 0.000341923 0.0 
0.0999256 -0.00622373 0.0 
1.03113 -0.0542833 0.0 
1.00061 0.000217762 0.0 
1.00369 0.00077148 0.0 
0.158216 -0.00910599 0.0 
0.998554 -0.000171732 0.0 
0.628393 -0.063477 0.0 
0.998882 -0.00242855 0.0 
1.00012 -0.000427563 0.0 
0.997596 0.00192756 0.0 
1.00288 0.000995579 0.0 
0.99708 -0.00197197 0.0 
0.0116735 0.000457261 0.0 
1.00036 -0.000198128 0.0 
1.00144 -0.00248508 0.0 
1.00043 0.000665631 0.0 
0.999896 0.000239124 0.0 
0.990722 -0.00459462 0.0 
0.998845 0.000353789 0.0 
1.00001 0.000275087 0.0 
0.998932 0.00116486 0.0 
0.986965 -0.0233461 0.0 
1.00193 0.00103015 0.0 
0.996721 -0.00131307 0.0 
1.00408 0.000644378 0.0 
6.68397e-09 5.11135e-10 0.0 
0.999879 3.99478e-06 0.0 
8.23469e-08 3.84456e-08 0.0 
0.999608 -0.000340479 0.0 
0.992101 0.00227796 0.0 
1.00036 0.000869279 0.0 
0.999935 0.00130871 0.0 
1.00256 0.00109242 0.0 
0.989227 -0.0135279 0.0 
0 0 0.0 
0.999873 3.86831e-05 0.0 
1.00139 -0.00526504 0.0 
0.999936 4.77413e-05 0.0 
0.0888658 0.00132945 0.0 
0.0264085 0.00130802 0.0 
0 0 0.0 
1.0001 9.53089e-05 0.0 
0.999663 8.21131e-05 0.0 
1.00014 -0.00106268 0.0 
1.00021 -0.000823034 0.0 
1.00076 -0.00237298 0.0 
1.00257 0.00310895 0.0 
0.998068 -0.0012312 0.0 
1.00129 -0.00110208 0.0 
0.999614 -0.000114994 0.0 
0.0942097 -0.0134459 0.0 
0.99991 3.32154e-05 0.0 
0.999387 0.000849565 0.0 
1.01071 0.00158386 0.0 
1.00023 0.0003812 0.0 
0.999087 -0.000969801 0.0 
0.998302 0.000313424 0.0 
0.997686 -0.00141565 0.0 
0.998684 -0.000817598 0.0 
1.00009 3.26525e-05 0.0 
0.999695 0.000155439 0.0 
0.988036 0.00242587 0.0 
0.999967 0.00105687 0.0 
1.00068 0.000969193 0.0 
1.0014 0.000815563 0.0 
1.00007 -0.000561984 0.0 
0.98718 -0.00909292 0.0 
0.982103 -0.00466377 0.0 
1.00717 -0.00193819 0.0 
0.983684 -0.00535652 0.0 
0.996006 -0.00780224 0.0 
1.00171 0.00289084 0.0 
1.00364 0.0122818 0.0 
1.01417 -0.00365501 0.0 
0.995257 -0.000700296 0.0 
0.486487 0.18669 0.0 
1.00329 0.00233273 0.0 
1.00101 -0.00106635 0.0 
0.975816 -0.00490321 0.0 
1.00074 0.000384074 0.0 
1.00001 0.000458776 0.0 
0.999067 0.00101304 0.0 
1.00109 0.000313764 0.0 
1.00006 0.000449786 0.0 
1.00174 0.00182472 0.0 
1.00023 0.000576137 0.0 
4.01759e-08 -5.105e-09 0.0 
0.999396 0.000664118 0.0 
0.999756 9.21627e-05 0.0 
0.994455 -0.0068477 0.0 
0.999968 -0.0010339 0.0 
1.00068 0.000138829 0.0 
1.00118 -0.00150551 0.0 
1.00008 0.000271246 0.0 
0.998117 -0.00125338 0.0 
0.996161 -0.000410998 0.0 
0.998944 -0.00278295 0.0 
0.999935 0.00107291 0.0 
0.994316 0.000855596 0.0 
1.00754 -9.03682e-05 0.0 
0.999263 -0.000177942 0.0 
0.999069 -0.000326459 0.0 
0.999842 0.000185247 0.0 
0.999803 0.00439652 0.0 
1.00031 0.000593125 0.0 
0 0 0.0 
0.999989 0.000184651 0.0 
0.999687 -0.000114812 0.0 
0.997963 0.000796229 0.0 
5.62596e-09 -1.32023e-10 0.0 
1.00083 -0.000439608 0.0 
0.999287 5.88244e-05 0.0 
0.999748 0.000264579 0.0 
1.00164 0.00322147 0.0 
1.00092 -0.00911376 0.0 
1.00152 0.000329835 0.0 
1.00018 0.000662524 0.0 
0 0 0.0 
1.00022 0.00103617 0.0 
1.00151 -0.00328542 0.0 
1.00228 0.00176252 0.0 
0.999864 0.000693441 0.0 
0.999823 0.00028282 0.0 
0.999932 0.000235645 0.0 
1.00116 -6.99721e-05 0.0 
1.0032 -0.00443337 0.0 
0.997567 0.00337962 0.0 
0.9999 -0.0426253 0.0 
0.999859 0.000160885 0.0 
1.00129 0.00353128 0.0 
1.0016 -0.000578767 0.0 
1.00106 3.08291e-05 0.0 
0.994056 0.0110677 0.0 
0 0 0.0 
1.0013 0.000425768 0.0 
0.999125 0.0013463 0.0 
0.989519 -0.000195265 0.0 
1.00196 -0.000319331 0.0 
0.9988 0.000979163 0.0 
1.00077 0.00150795 0.0 
0.999705 -0.000291824 0.0 
1.00047 7.33795e-05 0.0 
0.998987 0.00288403 0.0 
1.00063 0.0016871 0.0 
0.999866 -0.000137542 0.0 
0.999978 -0.00411256 0.0 
0.999848 -7.76876e-05 0.0 
1.00094 0.000268984 0.0 
0.0155347 0.000915394 0.0 
1.01004 -0.00739319 0.0 
1.00377 -0.00685763 0.0 
1.01648 -0.00981183 0.0 
1.00078 0.00011628 0.0 
0.994714 -0.00917986 0.0 
0.999989 0.000868528 0.0 
0 0 0.0 
1.00227 0.00116828 0.0 
0.737814 -0.150793 0.0 
1.03836 -0.0558903 0.0 
0.997058 0.00385519 0.0 
1.00002 -4.85054e-05 0.0 
0.9992 -0.00700714 0.0 
0.990843 -0.0024492 0.0 
0.99994 0.00728307 0.0 
1.0014 -0.000909955 0.0 
0.332025 0.0337913 0.0 
1.00099 0.00301696 0.0 
1.00121 0.00115275 0.0 
1.00078 0.00170222 0.0 
0.998367 -5.8629e-05 0.0 
0 0 0.0 
0.999426 -0.00116114 0.0 
1.00164 1.38824e-05 0.0 
0.998852 0.0042356 0.0 
1.00078 -0.00337523 0.0 
1.00139 0.000359033 0.0 
1.0009 -0.00216734 0.0 
0.998362 -0.00219237 0.0 
0.980319 -0.0240061 0.0 
0.999995 5.09792e-05 0.0 
0.99847 0.00203292 0.0 
0.999791 0.000107139 0.0 
1.00136 -7.89159e-05 0.0 
1.00195 -0.00110148 0.0 
1.00135 0.000695632 0.0 
1.05918 -0.225767 0.0 
0.998879 -0.00871303 0.0 
0.998056 0.00396056 0.0 
1.00001 0.000316903 0.0 
0.999993 0.00055644 0.0 
1.0015 0.00213043 0.0 
1.00427 -0.000794641 0.0 
0.999811 -0.000235003 0.0 
1.00003 0.000169544 0.0 
0.995744 -0.0357364 0.0 
1.00006 0.00103147 0.0 
1.00044 -0.000771582 0.0 
0.99993 3.58048e-05 0.0 
0.995902 -0.00433165 0.0 
1.00006 9.34576e-05 0.0 
1.00111 -0.000220404 0.0 
0.99987 0.000359566 0.0 
1.00153 0.000663877 0.0 
0.999307 0.000796509 0.0 
1.001 0.000531415 0.0 
0.999526 -4.15467e-05 0.0 
1.00022 0.000109033 0.0 
0.999416 0.00515887 0.0 
1.00333 0.000875492 0.0 
1.00071 0.000528182 0.0 
1.00356 9.19327e-05 0.0 
1.00116 -0.0013324 0.0 
0.999867 0.00154089 0.0 
1.00002 7.69242e-05 0.0 
1.00012 0.000127073 0.0 
1.00076 -0.00052618 0.0 
1.0029 -0.0001215 0.0 
0.998293 0.000693236 0.0 
1.00007 8.37774e-05 0.0 
1.00006 0.000183326 0.0 
1.00002 -0.000443718 0.0 
1.00146 -6.32301e-06 0.0 
0.999902 0.000120418 0.0 
1 -1.51627e-05 0.0 
0.999579 -0.000252668 0.0 
1.00047 -0.000588128 0.0 
1.00004 -9.80585e-05 0.0 
1.0019 -0.00147689 0.0 
0.999866 7.38633e-06 0.0 
0 0 0.0 
0.999022 -0.00049635 0.0 
0.999146 0.00185252 0.0 
0.99977 -0.00114202 0.0 
0.999745 6.53855e-05 0.0 
1.00432 -0.0022174 0.0 
1.00023 -0.000284371 0.0 
0.999947 -0.00149867 0.0 
1.00077 0.000662324 0.0 
0 0 0.0 
1.00002 0.000125996 0.0 
1.04874 -0.0843056 0.0 
1.00033 -0.00103326 0.0 
1.00202 5.12325e-05 0.0 
0.999831 3.7491e-05 0.0 
1.00001 0.000145644 0.0 
0.984334 -0.0153531 0.0 
0.997463 -0.000771857 0.0 
1.00105 -0.000324709 0.0 
0 0 0.0 
1.00155 0.00086677 0.0 
0.999756 0.000142217 0.0 
1.00009 5.98552e-05 0.0 
0.999937 0.000103311 0.0 
0.999455 0.000814857 0.0 
1.00125 4.40924e-05 0.0 
0.999327 0.000719644 0.0 
0.995674 0.0496698 0.0 
0.999895 0.000206733 0.0 
0.9994 0.000297663 0.0 
0.998041 -0.000144058 0.0 
1.00108 0.00373118 0.0 
1.00032 0.00119427 0.0 
1.00308 0.000823356 0.0 
0.999779 0.000307363 0.0 
0.999805 -3.6865e-05 0.0 
1.00013 -0.00127953 0.0 
1.00521 -0.000920286 0.0 
1.00167 0.00375858 0.0 
1.00119 2.60554e-06 0.0 
1.00086 -7.071e-05 0.0 
0.999746 -0.000167151 0.0 
1.00072 0.000791204 0.0 
1.00034 0.0282083 0.0 
1.00122 0.000208487 0.0 
-8.93764e-10 -3.25227e-10 0.0 
1.00042 0.00189602 0.0 
0.999152 -0.000232962 0.0 
1.00267 0.00391559 0.0 
0.999929 0.000683819 0.0 
1.00375 0.00048288 0.0 
1.00104 -0.00182557 0.0 
0.999121 0.00483231 0.0 
1.00602 0.00219058 0.0 
1.00014 0.000225266 0.0 
0.999804 -0.000119067 0.0 
0.998878 -0.000241197 0.0 
1.00403 0.00981963 0.0 
0.999476 -0.00031802 0.0 
0.998163 0.00133641 0.0 
0.999795 0.000498076 0.0 
0.999216 0.000460386 0.0 
0.999499 0.000327979 0.0 
1.0012 0.000824923 0.0 
1.00259 0.000735277 0.0 
0.999753 -1.87612e-05 0.0 
0.995532 0.00120923 0.0 
0.999978 0.00130277 0.0 
0.999862 4.7408e-05 0.0 
0.999863 0.000221603 0.0 
0.264983 -0.028384 0.0 
1.00037 0.000462687 0.0 
1.001 7.23423e-05 0.0 
0.997364 2.64337e-06 0.0 
0.999734 0.000162058 0.0 
0.99979 1.38586e-07 0.0 
1.0001 0.000118614 0.0 
1.0003 -0.000771819 0.0 
0.999307 0.000527154 0.0 
0.999865 1.72304e-05 0.0 
0.0446292 -0.00598027 0.0 