<VTKFile type="UnstructuredGrid" version="0.1" byte_order="LittleEndian">
  <UnstructuredGrid>
    <Piece NumberOfPoints="23679" NumberOfCells="47236">
      <Points>
        <DataArray type = "Float64" NumberOfComponents="3" format="ascii">
-5 -7 0.0 
15.5 -7 0.0 
15.5 7 0.0 
-5 7 0.0 
7.63511 2.91639 0.0 
1.87049 1.67084 0.0 
-0.605974 -0.287769 0.0 
2.37337 -3.10656 0.0 
0.929906 2.48659 0.0 
0.824948 -0.0289232 0.0 
0.579762 -2.6174 0.0 
2.75639 -0.320238 0.0 
0.600589 -0.0279367 0.0 
0.809974 0.0358912 0.0 
4.52511 -0.0925724 0.0 
0.692729 -0.023898 0.0 
2.14598 1.71184 0.0 
4.47114 -0.725108 0.0 
2.94972 0.812693 0.0 
-2.51884 -5.20772 0.0 
0.933054 -0.00978829 0.0 
-3.39004 -0.0550254 0.0 
0.209319 0.0741243 0.0 
-0.14562 -1.1416 0.0 
0.16355 -0.0415655 0.0 
4.37129 -0.146188 0.0 
0.125896 0.0617342 0.0 
2.89507 -0.00321849 0.0 
0.117818 -0.0547525 0.0 
0.74577 -0.0190427 0.0 
1.20907 -2.59566 0.0 
7.05945 1.36908 0.0 
1.18414 0.837326 0.0 
-0.664239 0.00933663 0.0 
0.988285 -0.635056 0.0 
0.79931 -0.0154644 0.0 
-0.169857 -0.752454 0.0 
-0.535193 0.781979 0.0 
4.50646 0.336854 0.0 
0.675201 -0.447934 0.0 
4.33956 3.92927 0.0 
7.20401 -0.547152 0.0 
5.06202 0.761268 0.0 
-1.83764 -0.830466 0.0 
2.97447 -2.59497 0.0 
1.77447 -4.2029 0.0 
0.203756 0.0741702 0.0 
2.3905 -0.208726 0.0 
-2.38226 0.0491773 0.0 
1.57579 -4.90006 0.0 
0.892623 0.876713 0.0 
0.619187 0.0692661 0.0 
1.81524 2.22933 0.0 
3.20393 -0.375619 0.0 
0.560088 -0.0307549 0.0 
-4.00064 -1.06423 0.0 
4.1637 1.41296 0.0 
2.03909 0.577378 0.0 
3.97155 -0.451817 0.0 
-1.0713 0.305678 0.0 
1.24518 -0.853569 0.0 
5.30713 0.379083 0.0 
0.993214 0.00283989 0.0 
0.513972 -3.72515 0.0 
4.25372 1.90694 0.0 
0.87556 0.025233 0.0 
0.401296 0.0780688 0.0 
0.44761 -0.0359067 0.0 
-3.06259 -0.640688 0.0 
0.58449 -3.29242 0.0 
4.47137 0.702541 0.0 
-0.523713 -0.272593 0.0 
-0.477755 -0.422453 0.0 
0.570246 -0.533547 0.0 
0.538433 -0.0310055 0.0 
5.2741 -1.01059 0.0 
2.21102 -1.39328 0.0 
1.30783 -0.274121 0.0 
4.18709 -1.48886 0.0 
-1.19726 -3.28581 0.0 
-0.0359698 -1.75399 0.0 
0.617039 -0.0263973 0.0 
5.83653 0.150199 0.0 
5.57946 0.224905 0.0 
0.377841 -0.038928 0.0 
1.38254 1.36675 0.0 
2.58372 -1.06479 0.0 
4.70454 -3.6075 0.0 
0.551438 0.113173 0.0 
0.532912 -0.0384617 0.0 
-0.392031 -0.729994 0.0 
4.38556 1.53498 0.0 
-1.34387 -2.96962 0.0 
4.73748 -0.295427 0.0 
5.13252 -2.84762 0.0 
5.34987 1.08334 0.0 
0.326684 0.0802051 0.0 
1.0681 0.191919 0.0 
0.292684 0.0800176 0.0 
-0.288073 -0.693253 0.0 
0.850052 0.029488 0.0 
7.72674 -2.22661 0.0 
5.73402 0.253504 0.0 
3.27298 3.73283 0.0 
2.31769 -0.889324 0.0 
3.24694 -2.57408 0.0 
-0.795775 -5.8192 0.0 
0.667923 -0.0361302 0.0 
0.835769 0.0314682 0.0 
4.69839 -1.50939 0.0 
4.91709 3.01814 0.0 
0.151849 -0.0409087 0.0 
3.55148 0.264681 0.0 
0.842117 -0.794382 0.0 
2.65591 1.43349 0.0 
0.932811 0.0144733 0.0 
-0.764917 -0.926758 0.0 
3.60734 -0.915315 0.0 
-0.605852 0.649115 0.0 
5.76621 -0.263827 0.0 
3.08877 -0.924843 0.0 
0.899825 -0.00795866 0.0 
6.80384 1.26814 0.0 
3.19847 -0.826277 0.0 
0.0166341 -0.0962489 0.0 
3.983 -1.51439 0.0 
5.81155 1.05052 0.0 
0.403773 -0.0376754 0.0 
4.06583 -0.737319 0.0 
3.85222 3.16404 0.0 
7.27994 -0.917065 0.0 
7.01199 -1.44503 0.0 
5.44634 0.7472 0.0 
5.43495 -0.0201864 0.0 
1.51213 -0.834065 0.0 
1.97076 0.806002 0.0 
0.634487 0.0595385 0.0 
-0.572414 -4.29099 0.0 
1.8826 -0.733417 0.0 
0.759381 -0.180619 0.0 
0.40132 0.0778474 0.0 
0.23454 -0.0430222 0.0 
-0.802406 2.95957 0.0 
0.691963 0.0549995 0.0 
5.47277 -0.740356 0.0 
14.1487 4.94071 0.0 
0.0736498 -1.30758 0.0 
-3.24273 0.882011 0.0 
1.37104 -0.876055 0.0 
-0.483647 -0.194829 0.0 
2.83565 1.06937 0.0 
5.52957 -1.21731 0.0 
0.947149 -0.00912481 0.0 
-0.408161 -0.611461 0.0 
-0.824132 1.91234 0.0 
-0.28194 0.734853 0.0 
-2.58987 -0.112571 0.0 
5.39673 0.0810302 0.0 
0.347037 -1.34491 0.0 
1.28521 2.08402 0.0 
0.220369 -0.0424097 0.0 
-0.490215 0.575937 0.0 
1.64934 -1.3049 0.0 
0.153085 0.0664047 0.0 
-0.251695 -2.55503 0.0 
0.826156 -0.0139773 0.0 
3.35673 0.186652 0.0 
4.62807 -2.39408 0.0 
-1.05781 -1.39579 0.0 
-2.54531 4.21509 0.0 
1.60336 1.51116 0.0 
0.713093 0.0498095 0.0 
0.643534 0.0642145 0.0 
-3.64101 4.81173 0.0 
-1.26922 -3.94313 0.0 
-0.342655 -1.12768 0.0 
3.30326 0.952175 0.0 
5.64264 0.331249 0.0 
1.34559 -0.214642 0.0 
1.60527 0.321358 0.0 
0.328683 -0.0401423 0.0 
3.81728 0.37784 0.0 
4.37562 0.758715 0.0 
5.5831 -1.82905 0.0 
-1.49688 0.101849 0.0 
-1.70027 -0.343758 0.0 
0.937041 0.0136815 0.0 
5.60623 1.42522 0.0 
-1.23169 -0.42816 0.0 
1.69627 2.52442 0.0 
1.36245 -1.5082 0.0 
1.25107 -3.80948 0.0 
2.74679 0.528168 0.0 
5.36614 -1.19177 0.0 
0.605019 1.16677 0.0 
-4.58423 -1.62108 0.0 
-2.02651 2.34708 0.0 
3.99339 3.63024 0.0 
-1.36142 -0.0750085 0.0 
5.19766 -0.482867 0.0 
-3.85513 -1.43107 0.0 
0.966422 0.00919783 0.0 
0.247834 0.0870881 0.0 
-0.465649 -0.817954 0.0 
4.29025 4.26714 0.0 
1.18312 -0.431176 0.0 
9.21986 0.0258833 0.0 
5.39136 -0.625475 0.0 
5.56604 0.611257 0.0 
1.96388 -1.61685 0.0 
0.196106 -0.0423443 0.0 
2.93186 0.364486 0.0 
5.88518 0.822328 0.0 
0.824138 -0.0139123 0.0 
-0.47228 -0.526413 0.0 
0.477118 -0.0338206 0.0 
-4.64673 -2.62107 0.0 
4.10712 -0.887195 0.0 
0.710355 0.0501717 0.0 
1.64936 -0.864917 0.0 
-1.61346 -3.22424 0.0 
0.0092848 0.0284272 0.0 
7.26993 2.53793 0.0 
1.1048 2.83071 0.0 
10.1588 1.30502 0.0 
-0.263385 -0.26391 0.0 
13.7005 7 0.0 
0.52333 0.0703707 0.0 
4.58595 -1.29531 0.0 
5.62067 -0.188463 0.0 
0.799738 -0.0147854 0.0 
11.9625 -2.20661 0.0 
5.40435 0.619553 0.0 
3.28687 -1.45096 0.0 
0.458966 0.0872446 0.0 
5.51568 -0.596029 0.0 
-1.63011 3.37507 0.0 
0.293181 -0.0414659 0.0 
0.865321 -2.71027 0.0 
0.786038 -0.0158333 0.0 
0.0736186 0.0492692 0.0 
4.13993 -2.76136 0.0 
0.881421 -0.0921271 0.0 
0.266317 -3.38104 0.0 
4.88629 -0.852705 0.0 
0.437008 0.076424 0.0 
3.8816 4.12562 0.0 
7.92184 -0.0908268 0.0 
0.176354 -0.0480078 0.0 
-0.662142 0.143724 0.0 
6.26015 0.128606 0.0 
0.915518 -0.00670685 0.0 
3.62021 -1.04763 0.0 
1.34876 0.720027 0.0 
0.982357 -3.49725 0.0 
0.663709 0.0566737 0.0 
5.3066 -0.705713 0.0 
-0.944514 -3.61431 0.0 
1.79294 -0.661223 0.0 
-0.342215 2.27409 0.0 
5.88842 -0.367403 0.0 
0.211839 -0.0420107 0.0 
0.654413 -0.0369233 0.0 
3.68564 6.54289 0.0 
5.00064 1.8515 0.0 
0.69027 0.0546811 0.0 
1.12166 0.441142 0.0 
7.31715 -3.60167 0.0 
2.79958 1.64327 0.0 
0.433465 0.0764782 0.0 
0.584196 0.0652607 0.0 
0.0636322 -0.695974 0.0 
-1.81416 1.63551 0.0 
0.74075 0.0465749 0.0 
2.69342 -1.49048 0.0 
4.86008 -1.00044 0.0 
0.822907 -0.0142337 0.0 
-0.164664 0.307939 0.0 
4.48127 5.51069 0.0 
4.4895 -4.79993 0.0 
5.37438 1.55243 0.0 
0.123991 1.28664 0.0 
6.41782 -0.499678 0.0 
3.16721 -0.70129 0.0 
1.99155 -0.729552 0.0 
4.69954 4.16905 0.0 
-1.91695 -2.36563 0.0 
8.09216 1.16816 0.0 
0.242046 0.0802658 0.0 
2.34355 2.47663 0.0 
2.72841 -0.285972 0.0 
13.5916 6.05949 0.0 
1.64671 4.40597 0.0 
3.03209 1.84093 0.0 
-0.498111 0.662759 0.0 
0.765551 -2.10462 0.0 
5.25655 0.61914 0.0 
6.04759 -2.75505 0.0 
1.12471 -0.237361 0.0 
6.40695 -2.14103 0.0 
4.37139 0.883681 0.0 
0.240004 -0.042139 0.0 
-4.55867 -4.42627 0.0 
-1.09286 3.96435 0.0 
-1.07351 0.572111 0.0 
3.73338 -0.828021 0.0 
-0.766762 -0.403459 0.0 
0.402752 -1.68281 0.0 
0.925255 0.0164317 0.0 
0.88786 -0.943606 0.0 
0.505244 -0.025873 0.0 
-0.299243 0.0389379 0.0 
3.36416 0.723434 0.0 
0.636773 1.7916 0.0 
0.0435288 1.09333 0.0 
0.74756 2.65039 0.0 
5.12608 -1.02106 0.0 
3.05399 0.794214 0.0 
3.3685 -2.29577 0.0 
9.40833 4.18552 0.0 
0.726496 1.10014 0.0 
-1.43587 -0.265452 0.0 
1.53809 -0.965095 0.0 
3.65342 -1.2467 0.0 
3.58193 2.86195 0.0 
1.58453 1.05649 0.0 
0.69113 -0.0216886 0.0 
4.67304 -0.737386 0.0 
2.403 -2.53676 0.0 
-0.883615 -1.03632 0.0 
0.570985 0.067201 0.0 
4.5489 1.01634 0.0 
1.30188 0.95494 0.0 
4.78484 -2.98767 0.0 
0.647276 3.74647 0.0 
1.64058 -1.98991 0.0 
5.60464 1.66025 0.0 
-2.46641 -2.76999 0.0 
0.0236771 0.0292808 0.0 
1.83737 -2.85625 0.0 
0.712397 -0.0207427 0.0 
-0.929233 -3.15638 0.0 
5.62429 -0.0217768 0.0 
0.696715 -0.0236006 0.0 
4.31467 0.462465 0.0 
1.90518 -1.00498 0.0 
3.8123 -0.317197 0.0 
-1.40698 0.43063 0.0 
8.12686 0.163945 0.0 
0.0912505 -0.0517404 0.0 
0.360402 0.0788181 0.0 
0.766222 5.08386 0.0 
0.543306 0.227627 0.0 
0.768677 -0.887089 0.0 
13.8069 6.49329 0.0 
3.14545 -0.527242 0.0 
3.00213 0.685174 0.0 
-3.26851 -1.17579 0.0 
0.326091 -0.0407782 0.0 
-0.350969 -1.28117 0.0 
-1.34372 -4.38367 0.0 
-1.47047 0.274883 0.0 
8.69891 -0.824176 0.0 
0.572752 0.0666296 0.0 
3.02391 1.56815 0.0 
0.546825 -0.0304958 0.0 
7.53034 -2.92118 0.0 
0.862614 -3.9233 0.0 
7.46433 -0.686568 0.0 
0.435695 0.0763326 0.0 
-0.291216 -0.600905 0.0 
0.958024 -0.00418663 0.0 
0.996359 0.00209859 0.0 
-3.04054 -1.35802 0.0 
7.86523 -1.29492 0.0 
0.824153 0.0339519 0.0 
-2.0843 -1.39076 0.0 
2.0242 4.23744 0.0 
6.10554 -1.09258 0.0 
0.070474 0.0518922 0.0 
0.253412 0.0852338 0.0 
4.90662 -3.37133 0.0 
5.3389 -1.37998 0.0 
8.18441 -5.4394 0.0 
4.74018 -1.11041 0.0 
-1.45792 -1.69797 0.0 
-0.658439 1.28669 0.0 
-1.47154 1.02941 0.0 
0.548603 -1.30682 0.0 
-4.28372 4.01846 0.0 
0.597388 -0.031556 0.0 
0.976283 3.91053 0.0 
-1.97604 3.44687 0.0 
-0.823498 -1.2495 0.0 
-0.676338 -0.322971 0.0 
0.0194499 -2.00073 0.0 
6.06625 2.2173 0.0 
4.77636 1.32682 0.0 
3.5286 -1.40716 0.0 
2.2348 6.10147 0.0 
4.3501 1.14584 0.0 
-0.374853 0.997283 0.0 
0.331239 -0.0398749 0.0 
2.92416 0.944765 0.0 
-1.08711 -0.79613 0.0 
-2.10643 0.811211 0.0 
10.0853 -2.20029 0.0 
9.19723 -1.4685 0.0 
-3.63493 -2.23583 0.0 
9.13289 -4.40814 0.0 
0.13646 -0.0401233 0.0 
3.73879 -1.49966 0.0 
1.16246 1.31001 0.0 
1.76621 -0.985528 0.0 
0.279409 0.0783782 0.0 
4.49882 0.813878 0.0 
0.0773295 0.0501322 0.0 
-1.7711 -2.7915 0.0 
2.21785 -2.83793 0.0 
1.9729 0.35934 0.0 
6.07917 0.172121 0.0 
-1.06801 -1.19434 0.0 
-0.742511 -0.787541 0.0 
4.55801 -0.996424 0.0 
10.0032 -3.21238 0.0 
4.23955 3.27 0.0 
4.4588 0.213546 0.0 
-3.41169 -1.50587 0.0 
0.374392 0.944982 0.0 
[...]
<PointData>
  <DataArray type = "Float64" Name="VitesseP1" NumberOfComponents="3" format="ascii">
1 0 0.0 
1.00127 0 0.0 
0.998827 0 0.0 
1 0 0.0 
0.998372 -0.0021514 0.0 
1.00622 -0.00608847 0.0 
0.983549 -0.0025076 0.0 
1.00115 -0.000832499 0.0 
1.00679 -0.00103091 0.0 
0.624681 0.0384502 0.0 
1.00101 -0.00114484 0.0 
0.999792 -0.00356347 0.0 
0.0115175 0.00035672 0.0 
0 0 0.0 
0.944 -0.00188718 0.0 
0.0875686 0.00545842 0.0 
1.00494 -0.00562672 0.0 
1.00192 -0.0023883 0.0 
1.00155 -0.00561695 0.0 
1.00009 -0.000177446 0.0 
0.149091 0.0100308 0.0 
0.999511 0.0013312 0.0 
0.0777088 0.00947455 0.0 
1.00083 -0.00589839 0.0 
1.256e-08 -4.79102e-10 0.0 
0.998208 -0.00272671 0.0 
3.13051e-08 6.97051e-09 0.0 
0.845231 -0.00402286 0.0 
1.13943 -0.112913 0.0 
0.0182073 0.00170251 0.0 
1.00111 -0.000898046 0.0 
0.999359 -0.0040345 0.0 
1.01455 -0.0171234 0.0 
0.982487 0.00833853 0.0 
1.00266 0.00826108 0.0 
0.0132073 0.000624528 0.0 
0.99927 -0.0119246 0.0 
1.00316 0.0187024 0.0 
1.00108 -0.00335688 0.0 
1.01661 0.0122214 0.0 
1.00064 -0.00135666 0.0 
1.00427 -0.0017711 0.0 
1.00119 -0.00331003 0.0 
0.997259 0.000730044 0.0 
1.00127 -0.00104698 0.0 
1.001 -0.000612987 0.0 
0.174196 0.017556 0.0 
0.998391 -0.00416024 0.0 
0.998383 0.00267822 0.0 
1.00091 -0.00045847 0.0 
1.0235 -0.0133293 0.0 
0.411549 -0.0405377 0.0 
1.00539 -0.0037015 0.0 
1.00088 -0.00317571 0.0 
0.0308818 0.00188258 0.0 
0.999822 0.000426128 0.0 
1.00129 -0.00328384 0.0 
1.00098 -0.0107243 0.0 
1.00173 -0.0027055 0.0 
0.9936 0.00923769 0.0 
1.00032 0.00334663 0.0 
1.0008 -0.00304162 0.0 
-3.04278e-09 -6.38916e-10 0.0 
1.00075 -0.000778739 0.0 
1.00137 -0.00289009 0.0 
-0.000843836 0.000158687 0.0 
3.21773e-08 -4.25033e-10 0.0 
0 0 0.0 
0.999185 0.00108697 0.0 
1.00081 -0.000897343 0.0 
1.00128 -0.00336495 0.0 
0.980869 -0.00445722 0.0 
0.986119 -0.00874008 0.0 
1.01725 0.00499277 0.0 
0 0 0.0 
1.00222 -0.00226463 0.0 
1.00011 -0.00101425 0.0 
0.98754 0.00635902 0.0 
1.0017 -0.00193886 0.0 
1.00006 -0.000740583 0.0 
1.00099 -0.00268601 0.0 
0 0 0.0 
0.987184 -0.00313212 0.0 
1.01303 -0.00200447 0.0 
3.42156e-08 1.56855e-09 0.0 
1.00986 -0.00809521 0.0 
1.00001 -0.00182737 0.0 
1.00183 -0.00113102 0.0 
1.13224 -0.0689823 0.0 
0.38833 0.0202784 0.0 
0.994783 -0.00943907 0.0 
1.00126 -0.00309356 0.0 
0.999869 -0.000791552 0.0 
1.00211 -0.00253452 0.0 
1.00209 -0.00145909 0.0 
1.00083 -0.00331409 0.0 
0.116091 0.000464745 0.0 
0.996775 -0.061223 0.0 
0.148808 0.00371086 0.0 
0.995538 -0.0118564 0.0 
-1.05258e-09 1.8431e-11 0.0 
1.00357 -0.00132806 0.0 
1.00659 -0.00460539 0.0 
1.00151 -0.00165463 0.0 
0.999302 -0.00175368 0.0 
1.00136 -0.00113227 0.0 
1.00036 -0.000209708 0.0 
0.595549 0.0345 0.0 
0 0 0.0 
1.00196 -0.00199869 0.0 
1.00059 -0.00193163 0.0 
0 0 0.0 
1.00081 -0.00414943 0.0 
1.00557 0.00448152 0.0 
1.00291 -0.00559459 0.0 
0 0 0.0 
0.995356 -0.00382112 0.0 
1.0013 -0.00233059 0.0 
0.999117 0.0191448 0.0 
1.00435 -0.00465174 0.0 
1.00069 -0.00229928 0.0 
0 0 0.0 
1.00016 -0.00428593 0.0 
1.00079 -0.00244954 0.0 
0.994341 -0.170029 0.0 
1.00158 -0.00188319 0.0 
1.0002 -0.00383306 0.0 
0 0 0.0 
1.00165 -0.0024409 0.0 
1.00137 -0.00201318 0.0 
1.00522 -0.00277739 0.0 
1.00319 -0.00242983 0.0 
1.00085 -0.00357977 0.0 
0.908013 -0.00240803 0.0 
0.998505 0.00168772 0.0 
1.0031 -0.0106718 0.0 
0 0 0.0 
1.00039 -0.000560652 0.0 
0.997685 -0.000692375 0.0 
1.01639 0.0358265 0.0 
0 0 0.0 
0.0478092 0.000485916 0.0 
1.00354 0.0026197 0.0 
0.0612058 -0.00758025 0.0 
1.00247 -0.00256893 0.0 
0.998626 0.000366665 0.0 
1.0022 -0.00429069 0.0 
0.999775 0.00197652 0.0 
0.999448 0.00242891 0.0 
0.976341 -0.00292194 0.0 
1.00216 -0.00575828 0.0 
1.00251 -0.00199722 0.0 
0.160733 0.0106538 0.0 
0.991862 -0.0104018 0.0 
1.00488 0.00587129 0.0 
1.00896 0.0248101 0.0 
0.998652 0.00215624 0.0 
0.964597 -0.00794548 0.0 
1.00309 -0.00266692 0.0 
1.00768 -0.00314273 0.0 
7.97962e-09 -1.79762e-10 0.0 
0.998733 0.0236907 0.0 
1.00012 6.44626e-05 0.0 
0 0 0.0 
1.00045 -0.00143724 0.0 
0.0252162 0.00192072 0.0 
0.999988 -0.00439681 0.0 
1.0019 -0.00160573 0.0 
0.997797 -0.00194273 0.0 
1.00071 0.00107085 0.0 
1.00766 -0.00703737 0.0 
0 0 0.0 
0.251716 -0.0272312 0.0 
1.00019 0.000480987 0.0 
1.00018 -0.000540562 0.0 
0.99911 -0.00584978 0.0 
1.00167 -0.00469302 0.0 
0.999102 -0.00156477 0.0 
0.985353 0.00394514 0.0 
0.996679 -0.0178956 0.0 
0 0 0.0 
1.00097 -0.0038519 0.0 
1.00131 -0.00340053 0.0 
1.00229 -0.00180067 0.0 
0.995608 0.00503356 0.0 
0.996209 0.00235224 0.0 
0 0 0.0 
1.00038 -0.0032024 0.0 
0.993705 0.00140713 0.0 
1.0052 -0.0027745 0.0 
1.0011 -1.2626e-05 0.0 
1.00093 -0.000711287 0.0 
1.00079 -0.00629052 0.0 
1.00235 -0.002366 0.0 
1.02133 -0.00158688 0.0 
0.999981 0.000102428 0.0 
1.00143 0.00328435 0.0 
1.00099 -0.00161155 0.0 
0.994183 0.00418715 0.0 
1.00237 -0.0021589 0.0 
0.999791 0.000327849 0.0 
-0.0126052 0.0025569 0.0 
1.09448 0.0825222 0.0 
0.995535 -0.00755474 0.0 
1.00059 -0.00115869 0.0 
0.994866 0.00998424 0.0 
0.99103 -0.0055513 0.0 
1.00319 -0.00304278 0.0 
1.00181 -0.00344812 0.0 
1.00055 -0.000703607 0.0 
2.00389e-08 -9.77171e-10 0.0 
1.00044 -0.00553564 0.0 
1.00163 -0.00333483 0.0 
0.0169158 0.00110857 0.0 
0.989205 -0.00910384 0.0 
0 0 0.0 
0.999996 1.58306e-05 0.0 
1.00172 -0.00232177 0.0 
0 0 0.0 
0.998493 0.00072739 0.0 
0.999935 -0.000624624 0.0 
0.690322 0.504477 0.0 
0.998633 -0.00259164 0.0 
1.00542 -0.00111278 0.0 
0.994366 0.000965814 0.0 
0.973193 -0.0216306 0.0 
0.998558 0 0.0 
0 0 0.0 
1.00191 -0.00208356 0.0 
0.992318 -0.000980547 0.0 
0 0 0.0 
1.0023 0.0021048 0.0 
1.00093 -0.00324688 0.0 
1.00106 -0.00176828 0.0 
0.858406 -0.038767 0.0 
1.0019 -0.00175629 0.0 
1.00181 0.00201435 0.0 
1.79047e-08 8.20975e-10 0.0 
1.00105 -0.000998516 0.0 
0 0 0.0 
6.97985e-08 2.11068e-08 0.0 
1.0017 -0.00133294 0.0 
1.00077 0.0467089 0.0 
1.0007 -0.000903341 0.0 
1.00216 -0.00229565 0.0 
0 0 0.0 
1.00088 -0.00129141 0.0 
0.982499 -0.0057715 0.0 
0.696174 -0.0260686 0.0 
0.984414 0.0131287 0.0 
0.978425 -0.00363858 0.0 
0 0 0.0 
1.00128 -0.0022001 0.0 
1.00948 -0.0190512 0.0 
1.0009 -0.000800202 0.0 
0.00472937 -0.000571547 0.0 
1.00189 -0.00213939 0.0 
1.00023 -0.00071136 0.0 
0.996891 -0.000369621 0.0 
1.00629 0.00378098 0.0 
1.01129 -0.0063359 0.0 
0 0 0.0 
0.599925 0.0344133 0.0 
1.00036 -0.000160502 0.0 
1.00088 -0.00275834 0.0 
0.0424359 -0.0052013 0.0 
1.01188 -0.0354505 0.0 
1.00282 -0.000795417 0.0 
1.00302 -0.00485727 0.0 
0 0 0.0 
8.06615e-09 -5.29072e-10 0.0 
1.00584 -0.0134507 0.0 
1.00129 0.00475249 0.0 
0.00306462 -0.000411099 0.0 
1.0006 -0.00144764 0.0 
1.00212 -0.00226636 0.0 
0.0267955 0.00160078 0.0 
0.989829 0.0599919 0.0 
1.00019 -0.000541992 0.0 
1.00164 -0.000698586 0.0 
1.00073 -0.00302973 0.0 
1.01595 0.00755596 0.0 
1.01101 -0.00596337 0.0 
1.0006 -0.00264474 0.0 
0.997895 -0.00119279 0.0 
1.00037 -0.00119273 0.0 
0.999439 -0.000519702 0.0 
0.996722 -0.00506035 0.0 
0.553701 0.040529 0.0 
1.0037 -0.00332643 0.0 
0.999492 -0.00366833 0.0 
0.998508 0.000153817 0.0 
1.00216 -0.000676117 0.0 
1.00273 -0.00417163 0.0 
1.00074 0.0216557 0.0 
1.00138 -0.00113681 0.0 
1.0007 -0.00362949 0.0 
1.00251 -0.00142357 0.0 
0.986324 0.0172937 0.0 
1.00278 -0.00164312 0.0 
1.00132 -0.00338236 0.0 
0 0 0.0 
1 -2.85137e-05 0.0 
1.00198 0.0013466 0.0 
0.996786 0.0106612 0.0 
1.00141 -0.00240767 0.0 
0.989067 -0.00157392 0.0 
1.00204 -0.00195949 0.0 
-2.70196e-08 4.28366e-09 0.0 
1.00421 0.0026113 0.0 
0 0 0.0 
0.952674 0.0175503 0.0 
1.00136 -0.00461474 0.0 
1.01173 -0.000322714 0.0 
1.01827 0.0122463 0.0 
1.00632 -0.000301462 0.0 
1.00206 -0.00219792 0.0 
1.00148 -0.00533466 0.0 
1.00133 -0.00126891 0.0 
0.997848 -0.000557076 0.0 
1.02154 -0.00501961 0.0 
0.99491 0.0027479 0.0 
0.999205 0.00114338 0.0 
1.00129 -0.00202229 0.0 
1.00172 -0.00241307 0.0 
1.00784 -0.0113786 0.0 
0 0 0.0 
1.00201 -0.00235664 0.0 
1.0011 -0.00093342 0.0 
0.996283 -0.00296261 0.0 
0.0281816 -0.00219656 0.0 
1.00122 -0.0032555 0.0 
1.01211 -0.0141202 0.0 
1.00192 -0.00137061 0.0 
1.00335 4.98988e-05 0.0 
1.00094 -0.000655878 0.0 
1.00056 -0.00295442 0.0 
0.99971 -0.000279645 0.0 
5.76018e-08 2.91053e-08 0.0 
1.0011 -0.000835786 0.0 
2.50331e-08 1.89545e-09 0.0 
1.00013 -0.000884876 0.0 
0.92053 -0.00107035 0.0 
0.0848569 0.00558329 0.0 
1.00115 -0.00344655 0.0 
0.999066 -0.000468831 0.0 
1.0016 -0.00289793 0.0 
0.996542 0.00702987 0.0 
0.986052 -0.00884613 0.0 
1.14147 -0.15516 0.0 
1.22558e-08 5.54422e-10 0.0 
1.00171 -4.74294e-05 0.0 
1.10741 -0.0389048 0.0 
1.00604 0.00243173 0.0 
0.998558 8.21704e-05 0.0 
1.00055 -0.00293703 0.0 
1.00133 -0.00548746 0.0 
0.999463 0.000582052 0.0 
0.0124859 0.000616289 0.0 
0.999333 -0.00463836 0.0 
1.00021 -0.000435902 0.0 
0.996154 0.00596967 0.0 
1.00975 -0.00324648 0.0 
0.00857051 -0.00098718 0.0 
1.0025 -0.0046287 0.0 
0 0 0.0 
1.00317 -0.000993975 0.0 
1.00083 -0.000700638 0.0 
1.00613 -0.00392255 0.0 
0 0 0.0 
0.993571 -0.0138225 0.0 
0 0 0.0 
0 0 0.0 
0.999331 0.000479302 0.0 
1.00356 -0.00249366 0.0 
0.000580948 -0.000102188 0.0 
0.998486 6.98016e-05 0.0 
1.00211 -0.000989313 0.0 
1.00236 -0.00222103 0.0 
0.797412 0.251771 0.0 
0.95978 0.0669712 0.0 
1.00193 -0.00123896 0.0 
1.00227 -0.00210714 0.0 
1.00257 -0.000161487 0.0 
1.00201 -0.00215144 0.0 
0.99857 -0.00102204 0.0 
1.00546 0.0106344 0.0 
0.999909 0.00709834 0.0 
1.00349 -0.00152603 0.0 
1.00004 0.000393192 0.0 
0.187743 0.010846 0.0 
1.00303 -0.000316394 0.0 
1.00141 0.00187398 0.0 
0.997405 -0.00294012 0.0 
0.986141 -0.00182537 0.0 
1.00086 -0.00207274 0.0 
0.999846 -0.00273229 0.0 
1.00097 -0.0030964 0.0 
1.00123 -0.00186392 0.0 
1.00096 -0.000252262 0.0 
1.00121 -0.00330543 0.0 
1.00873 0.0163348 0.0 
0 0 0.0 
1.00187 -0.00561446 0.0 
0.99477 -0.00126007 0.0 
0.999193 0.00441948 0.0 
1.00412 0.00123795 0.0 
1.00495 -0.000324805 0.0 
0.999823 8.04964e-05 0.0 
1.0029 2.22046e-05 0.0 
0 0 0.0 
1.00142 -0.00184599 0.0 
1.01265 -0.00790767 0.0 
0.998973 3.73425e-05 0.0 
0 0 0.0 
1.0013 -0.00334082 0.0 
0 0 0.0 
0.999704 -0.000606067 0.0 
1.00114 -0.000855715 0.0 
0.998606 -0.0112748 0.0 
0.984023 -0.00859882 0.0 
0.996974 -0.0019703 0.0 
0.994036 -0.00414465 0.0 
1.00197 -0.00223432 0.0 
1.00333 0.00059559 0.0 
1.00101 -0.00182033 0.0 
1.00066 -0.0033599 0.0 
0.999604 0.000359865 0.0 
1.02776 0.00559324 0.0 
0 0 0.0 
1.00091 0.00189839 0.0 
1.02218 0.0159211 0.0 
0.997343 -0.00511443 0.0 
0.998544 0.0133577 0.0 
1.00026 -0.00127216 0.0 
0.0114412 -0.00166927 0.0 
1.00175 -0.00204708 0.0 
1.00802 -0.00875205 0.0 
1.00099 0.00167777 0.0 
0.995692 -0.000509725 0.0 
4.31467e-08 8.26692e-10 0.0 
1.00254 0.00154801 0.0 
1.00117 -0.00322798 0.0 
0 0 0.0 
1.00027 -0.00183216 0.0 
1.00284 0.00629819 0.0 
2.61574e-07 -9.20349e-09 0.0 
1.00039 -0.00240565 0.0 
1.00225 -0.0028709 0.0 
0.999713 -0.00244944 0.0 
0.0183177 0.000491637 0.0 
1.0079 0.00150193 0.0 
1.0024 -0.000287507 0.0 
1.00258 0.00330579 0.0 
1.01454 0.00157739 0.0 
1.00187 0.000707186 0.0 
1.00029 -0.00106348 0.0 
1.00262 8.16624e-05 0.0 
1.00023 0.0040312 0.0 
1.00144 -0.00226224 0.0 
0.108172 0.0203402 0.0 
1.00106 -0.0010569 0.0 
0.283344 0.0217413 0.0 
1.00167 -0.000876019 0.0 
1.00014 0.00118699 0.0 
1.00016 0.00279022 0.0 
1.00126 -0.000463113 0.0 
1.00283 -0.00159588 0.0 
1.00005 0.00192221 0.0 
0.997277 0.00457931 0.0 
1.00216 -0.000322118 0.0 
1.02501 -0.00780952 0.0 
1.0002 -0.000807168 0.0 
1.00194 0.00319259 0.0 
0 0 0.0 
1.00079 -0.00288803 0.0 
1.00131 -0.00441536 0.0 
0.998914 0.00290971 0.0 
1.00551 0.0219917 0.0 
1.00021 -0.00608697 0.0 
0.998736 -0.000435177 0.0 
1.00233 -0.00116078 0.0 
0.949819 -0.001231 0.0 
0.963694 0.0010706 0.0 
8.79309e-09 1.78826e-10 0.0 
1.00283 0.00217589 0.0 
1.00114 -0.00331996 0.0 
1.00306 -0.00169888 0.0 
1.00419 -0.000901199 0.0 
0.995913 0.0037504 0.0 
0 0 0.0 
0.996816 -0.00049945 0.0 
0.999897 0.000497339 0.0 
1.0019 -0.00283638 0.0 
0 0 0.0 
0.999978 6.82501e-05 0.0 
0.999898 -0.00100674 0.0 
1.00217 -0.00136524 0.0 
0.999146 -0.000932916 0.0 
1.00121 -0.00071164 0.0 
1.00639 -0.00476308 0.0 
0.932545 0.00142337 0.0 
0.999992 -0.00289089 0.0 
1.0033 -0.00034688 0.0 
1.00179 -0.00332242 0.0 
0.998624 0.000159283 0.0 
1.00108 -0.000848316 0.0 
1.00158 -0.00176062 0.0 
1.00001 0.00445829 0.0 
1.0026 -0.00430588 0.0 
0.998312 0.000223145 0.0 
1.00164 -0.000986683 0.0 
1.00174 -0.00223787 0.0 
1.00009 0.000345274 0.0 
0.0903238 -0.00559618 0.0 
1.03503 -0.0446932 0.0 
1.00227 -0.000401518 0.0 
0.999973 0.00166091 0.0 
0.143645 -0.00817919 0.0 
1.00115 -0.00275589 0.0 
0.566655 -0.0550172 0.0 
1.00268 -0.00326602 0.0 
1.00004 -0.000148055 0.0 
0.997795 0.00330128 0.0 
1.00077 -0.00108919 0.0 
1.00244 -0.00418549 0.0 
0.00958419 0.000377848 0.0 
1.00059 -0.000270487 0.0 
1.00041 -0.00176335 0.0 
1.00265 -0.00139629 0.0 
0.988125 -0.000264665 0.0 
1.00198 -0.00702861 0.0 
1.00084 -0.00298631 0.0 
1.00902 0.00122764 0.0 
1.00112 -0.00334368 0.0 
0.999519 -0.0154601 0.0 
1.00246 0.00175004 0.0 
0.996482 0.000331747 0.0 
1.00078 0.0012963 0.0 
6.44591e-09 5.02107e-10 0.0 
0.998667 8.62334e-05 0.0 
8.19459e-08 3.83108e-08 0.0 
1.00016 -0.00126455 0.0 
0.992028 0.00495401 0.0 
1.0025 -0.00176644 0.0 
1.00258 -0.00187021 0.0 
1.00093 -0.00114433 0.0 
1.00216 -0.0106019 0.0 
0 0 0.0 
0.99828 0.000456042 0.0 
0.994402 -0.000804361 0.0 
0.998961 0.00126526 0.0 
0.0903634 0.00134608 0.0 
0.0222185 0.00109606 0.0 
0 0 0.0 
1.00182 0.00132232 0.0 
0.998375 -0.00181651 0.0 
0.999885 -0.000496133 0.0 
1.00124 -0.00112289 0.0 
1.00358 -0.00219047 0.0 
1.00071 -0.00210935 0.0 
0.997858 2.0373e-05 0.0 
1.00057 -0.000890957 0.0 
0.999525 -0.00140119 0.0 
0.0518694 -0.00718035 0.0 
0.998746 0.000800233 0.0 
1.0055 -0.00291805 0.0 
1.01337 0.00479572 0.0 
1.00359 -0.000619086 0.0 
0.998979 -6.19742e-05 0.0 
1.00111 -0.00308743 0.0 
1.00209 -0.00358332 0.0 
1.00133 -0.00259665 0.0 
1.00109 0.000841127 0.0 
0.99762 -0.00222321 0.0 
1.00054 -0.00603362 0.0 
1.00334 -0.00253775 0.0 
1.00211 -0.00158366 0.0 
1.00151 -0.00109725 0.0 
1.00071 -0.000891858 0.0 
0.985852 -0.0056837 0.0 
1.00005 -0.00772585 0.0 
1.00472 -0.000954432 0.0 
1.00044 -0.0078428 0.0 
1.00418 -0.00723982 0.0 
1.00235 0.00405365 0.0 
1.00505 0.0155827 0.0 
1.01774 0.000288386 0.0 
1.00178 -0.00470347 0.0 
0.486474 0.186741 0.0 
1.0044 0.00389125 0.0 
1.00043 -0.000797225 0.0 
0.999083 -0.00764562 0.0 
1.00209 -0.000776909 0.0 
1.00001 0.000495146 0.0 
1.00152 -0.00346648 0.0 
1.0015 -0.000659053 0.0 
1.0039 -0.0017361 0.0 
1.00222 0.00259893 0.0 
1.00319 -0.00151016 0.0 
2.60905e-08 -3.29541e-09 0.0 
0.998893 -0.00449816 0.0 
0.997633 -0.00108209 0.0 
1.00341 -0.00711982 0.0 
0.999776 -0.000404252 0.0 
1.00058 0.000148801 0.0 
1.00303 -0.00119925 0.0 
1.0051 0.00127844 0.0 
1.00186 -0.00322333 0.0 
1.00165 -0.00426636 0.0 
0.998347 -0.0015257 0.0 
0.999933 0.00112235 0.0 
1.00145 -0.00485108 0.0 
1.00491 0.000894871 0.0 
1.00033 -0.00208718 0.0 
1.00069 -0.00219706 0.0 
0.994716 -0.000444821 0.0 
1.00043 0.0060068 0.0 
1.003 -0.00143153 0.0 
0 0 0.0 
1.00369 0.00624812 0.0 
0.999466 -0.00111685 0.0 
1.0013 -0.00335605 0.0 
4.96685e-09 -8.81545e-11 0.0 
1.00043 -0.000362727 0.0 
0.999991 -0.00253081 0.0 
0.995324 -0.00425567 0.0 
1.0011 -0.00223672 0.0 
0.999079 -0.00719512 0.0 
1.00128 -0.000733468 0.0 
1.00018 0.000584809 0.0 
0 0 0.0 
1.00256 -0.00213109 0.0 
1.00032 -0.00234635 0.0 
1.00106 -0.00150385 0.0 
1.0059 -0.00365637 0.0 
0.993774 -0.00530944 0.0 
0.999922 0.000235423 0.0 
1.0009 -0.000299999 0.0 
1.00145 -0.00332891 0.0 
1.00093 -0.00382858 0.0 
1.00745 -0.0332606 0.0 
0.995397 0.000586379 0.0 
1.00116 -0.00240354 0.0 
1.00259 -8.32255e-05 0.0 
1.00119 -0.000114745 0.0 
0.927031 -0.00553843 0.0 
0 0 0.0 
1.0015 0.000736793 0.0 
0.999213 0.00186997 0.0 
0.989096 0.002786 0.0 
1.00295 0.000344537 0.0 
1.00114 -0.00331943 0.0 
1.00189 -0.00184957 0.0 
0.999686 0.000138464 0.0 
1.00245 -8.34346e-05 0.0 
0.999292 0.00387338 0.0 
1.00188 -0.00196769 0.0 
0.999779 -0.000469773 0.0 
1.0044 -0.00386261 0.0 
0.999556 -0.000357949 0.0 
1.00166 -0.000596062 0.0 
0.0140622 0.000825558 0.0 
1.01443 -0.00374139 0.0 
1.00873 -0.00465332 0.0 
1.01314 -0.00841129 0.0 
1.00189 -0.000253188 0.0 
1.0041 -0.00820342 0.0 
1.00197 -0.00249572 0.0 
0 0 0.0 
1.00108 -0.00119844 0.0 
0.732813 -0.136117 0.0 
1.04153 -0.0463098 0.0 
0.997447 0.00574601 0.0 
1.00002 -3.93872e-05 0.0 
0.997772 -0.00514418 0.0 
0.990226 0.000380366 0.0 
1.00084 0.00973444 0.0 
1.00259 -0.000530216 0.0 
0.326901 0.0333051 0.0 
1.00148 0.00401891 0.0 
1.00167 -0.00141949 0.0 
1.00182 -0.00190538 0.0 
1.00125 -0.00292122 0.0 
0 0 0.0 
0.999274 -0.000319435 0.0 
1.0011 -0.00068088 0.0 
0.999335 0.00589582 0.0 
0.999748 -0.00233083 0.0 
1.00134 -0.000720388 0.0 
1.00009 -0.00145941 0.0 
1.00246 -0.00350171 0.0 
0.99548 -0.0130783 0.0 
0.999979 0.00156381 0.0 
0.998709 0.00310163 0.0 
0.997207 -0.000634906 0.0 
1.00099 -0.000523621 0.0 
1.00089 -0.00103713 0.0 
1.00154 0.00106249 0.0 
1.05043 -0.223286 0.0 
0.99726 -0.00666189 0.0 
0.998507 0.00570027 0.0 
1.00001 0.000338304 0.0 
1.005 -0.0032082 0.0 
1.00192 0.00287376 0.0 
1.00192 -0.000415079 0.0 
0.999912 -0.000757903 0.0 
1.0027 0.0036914 0.0 
1.0042 -0.0268332 0.0 
1.00211 -0.00222667 0.0 
1.00134 -0.000946114 0.0 
0.998983 0.001035 0.0 
0.991118 0.00126167 0.0 
1.00139 0.00178527 0.0 
1.00072 -0.000351756 0.0 
0.987214 -0.00932937 0.0 
1.00141 -0.00095736 0.0 
0.999007 -0.00425449 0.0 
1.00174 -0.00098616 0.0 
0.999496 -0.00187616 0.0 
1.00251 0.000428329 0.0 
1.00111 -0.00319003 0.0 
1.0006 -0.000971655 0.0 
1.00066 0.00053575 0.0 
1.00088 -0.00045001 0.0 
1.00045 -0.000998735 0.0 
0.999871 0.00162818 0.0 
1.0006 0.00194211 0.0 
1.00232 0.00131247 0.0 
1.00137 -0.000501225 0.0 
1.00109 -0.000769396 0.0 
0.998405 0.00171348 0.0 
1.0014 0.00150267 0.0 
1.00301 0.00261982 0.0 
0.999989 -0.000149137 0.0 
1.00107 -0.000589048 0.0 
0.997106 0.00192541 0.0 
0.999996 -2.50708e-05 0.0 
0.999975 -0.00137558 0.0 
1.00019 -0.00033548 0.0 
1.00003 -4.79665e-05 0.0 
1.00083 -0.00120097 0.0 
0.998438 7.90523e-05 0.0 
0 0 0.0 
1.00091 -0.00217967 0.0 
0.999306 0.00240852 0.0 
0.999591 -0.00041385 0.0 
0.998026 -0.000983896 0.0 
1.00227 -0.00149079 0.0 
1.0001 -0.000109747 0.0 
1.00205 -0.00194668 0.0 
1.00208 -0.00121936 0.0 
0 0 0.0 
1.00144 0.00281083 0.0 
1.05029 -0.0724597 0.0 
1.00163 -0.0012618 0.0 
1.0011 -0.000809707 0.0 
0.99807 2.55146e-05 0.0 
1.00001 0.000146819 0.0 
1.00006 -0.0109225 0.0 
1.00185 -0.00359728 0.0 
1.00063 -0.000382374 0.0 
0 0 0.0 
1.00144 -0.00108508 0.0 
0.99707 -0.00149408 0.0 
1.0013 0.00112617 0.0 
0.998354 0.00245032 0.0 
1.00632 -0.002429 0.0 
1.00109 -0.000427403 0.0 
0.999874 -0.00462916 0.0 
0.997542 0.0548834 0.0 
0.990536 0.00134336 0.0 
0.999794 -0.00338141 0.0 
1.00144 -0.00314045 0.0 
1.00171 0.00507059 0.0 
1.00227 -0.00202057 0.0 
1.00423 0.002036 0.0 
0.997721 -0.00420753 0.0 
0.999216 -0.000339977 0.0 
1.0018 -0.00164269 0.0 
1.0027 -0.000234011 0.0 
1.001 -0.00241857 0.0 
1.00103 -0.000336464 0.0 
1.00052 -7.33627e-05 0.0 
0.999673 -0.000876469 0.0 
1.00069 0.000769654 0.0 
1.0018 0.0326633 0.0 
1.00142 0.000473448 0.0 
-2.37181e-09 2.55472e-11 0.0 
1.00047 0.0017812 0.0 
1.00051 -0.00216853 0.0 
1.00367 0.00566045 0.0 
1.00666 -0.00400108 0.0 
1.00008 -0.000488693 0.0 
1.00027 -0.00126843 0.0 
1.00048 -0.0031885 0.0 
0.999184 -0.0022077 0.0 
1.00364 0.000924527 0.0 
0.999565 -0.000621855 0.0 
0.994587 0.00324057 0.0 
0.999793 -0.00364376 0.0 
0.999469 0.000266102 0.0 
1.00127 -0.00340689 0.0 
0.977692 -0.00493836 0.0 
1.00057 -0.00333927 0.0 
0.999173 -0.00374162 0.0 
1.00164 -0.00118263 0.0 
1.00098 -0.00098301 0.0 
0.998863 -0.000724375 0.0 
1.00143 -0.00440119 0.0 
0.999982 0.00136419 0.0 
0.998075 0.000374576 0.0 
0.992719 -0.000802003 0.0 
0.18075 -0.0164572 0.0 
1.00295 -0.000938291 0.0 
1.00139 -0.000187418 0.0 
0.99732 0.00140685 0.0 
0.997138 -0.00203749 0.0 
0.998676 -0.000155783 0.0 
1.00207 0.00157984 0.0 
1.00007 -0.000367824 0.0 
0.999962 -0.00351775 0.0 
0.998398 0.000180904 0.0 
0.0275591 -0.00363258 0.0 
1.00069 -5.49811e-05 0.0 