<VTKFile type="UnstructuredGrid" version="0.1" byte_order="LittleEndian">
  <UnstructuredGrid>
    <Piece NumberOfPoints="9712" NumberOfCells="19403">
      <Points>
        <DataArray type = "Float64" NumberOfComponents="3" format="ascii">
-5 -7 0.0 
15.5 -7 0.0 
15.5 7 0.0 
-5 7 0.0 
-1.6546 1.77742 0.0 
-2.13867 1.86504 0.0 
-1.83467 1.79143 0.0 
1.47969 -2.21179 0.0 
1.36003 -2.38618 0.0 
1.4346 -2.45048 0.0 
-2.04214 1.94165 0.0 
-0.20425 1.17338 0.0 
-2.07648 1.81911 0.0 
-2.00827 1.89081 0.0 
-2.05492 1.98872 0.0 
0.192693 0.536219 0.0 
0.154285 1.75648 0.0 
1.1379 -1.62057 0.0 
-2.11226 1.96977 0.0 
-1.74119 1.75327 0.0 
1.14499 -1.58184 0.0 
-1.94373 2.37229 0.0 
1.50619 -0.664239 0.0 
1.99658 -1.76705 0.0 
1.7229 -1.18344 0.0 
-1.97759 2.52091 0.0 
-0.768046 0.387136 0.0 
1.32657 -1.43969 0.0 
1.90142 0.24821 0.0 
-0.93264 1.51038 0.0 
1.09557 0.967223 0.0 
0.627111 0.757352 0.0 
-2.05707 2.31394 0.0 
1.34027 -2.45136 0.0 
-0.725097 0.397516 0.0 
-0.666094 2.30428 0.0 
-0.73829 -0.279965 0.0 
1.73336 -1.08822 0.0 
1.88466 -1.24421 0.0 
1.50539 -1.23752 0.0 
1.65978 -1.30759 0.0 
-0.0409718 0.542603 0.0 
1.6005 -1.1227 0.0 
1.78439 -0.941488 0.0 
1.86015 -1.54236 0.0 
1.49308 -1.40058 0.0 
2.34892 -1.47149 0.0 
2.13832 -1.3246 0.0 
1.73061 0.751302 0.0 
-0.580328 0.526903 0.0 
1.51013 -2.1595 0.0 
-1.65424 3.45779 0.0 
-1.51397 2.46352 0.0 
1.42773 -2.17867 0.0 
0.304353 0.497878 0.0 
2.24628 0.228293 0.0 
1.51258 -2.27933 0.0 
-1.60346 3.44299 0.0 
-1.71408 2.36227 0.0 
2.17421 0.530405 0.0 
2.42 0.316451 0.0 
-1.63642 3.31911 0.0 
2.53942 -0.995036 0.0 
0.750003 0.810439 0.0 
2.04736 0.40918 0.0 
1.19615 -1.50641 0.0 
2.13474 0.494063 0.0 
0.547924 0.306722 0.0 
-0.2059 0.361394 0.0 
2.2127 0.547693 0.0 
1.41442 -0.597105 0.0 
1.52233 -1.46252 0.0 
-1.84114 2.53924 0.0 
-5 -2.53894 0.0 
2.32127 0.371156 0.0 
-1.69186 3.33379 0.0 
-0.964779 0.566136 0.0 
-1.81311 2.48387 0.0 
-1.78557 3.38304 0.0 
1.48278 0.914136 0.0 
2.51531 -1.89689 0.0 
1.20982 -0.330514 0.0 
0.408434 0.319657 0.0 
0.95023 0.60993 0.0 
-0.752349 0.440796 0.0 
-0.998248 0.564019 0.0 
-1.73165 3.36299 0.0 
1.24353 -1.49063 0.0 
0.942095 0.817189 0.0 
-1.77816 2.47096 0.0 
2.48183 -1.95479 0.0 
1.33574 -1.77854 0.0 
0.823335 1.12085 0.0 
-0.36308 0.598468 0.0 
0.745466 0.783414 0.0 
-1.88344 2.8521 0.0 
-1.79794 3.52221 0.0 
3.0087 0.272815 0.0 
-1.81486 2.66014 0.0 
0.375911 -0.403668 0.0 
-0.68323 0.487288 0.0 
-0.34187 -0.274923 0.0 
-0.293875 -0.201368 0.0 
1.61018 -1.767 0.0 
-0.448275 -0.347267 0.0 
-1.08687 0.352015 0.0 
1.29257 -1.76345 0.0 
1.67658 -1.49551 0.0 
1.19193 0.533009 0.0 
1.21582 -1.91654 0.0 
-0.36438 -0.346225 0.0 
-0.92534 0.330346 0.0 
2.3836 0.287756 0.0 
1.68841 0.639887 0.0 
1.59001 -1.89458 0.0 
1.14818 -1.92143 0.0 
1.28996 -2.19426 0.0 
1.37603 -1.8763 0.0 
1.23834 -2.09141 0.0 
1.11702 -2.06287 0.0 
0.691829 0.463808 0.0 
1.46523 -2.03459 0.0 
-0.123547 0.424486 0.0 
-1.3311 2.12174 0.0 
1.08169 -1.90074 0.0 
1.87975 -2.15971 0.0 
1.10131 -1.78593 0.0 
1.13722 0.534683 0.0 
1.42465 -1.59031 0.0 
-1.45435 2.47344 0.0 
1.41998 -1.98207 0.0 
0.463917 1.8787 0.0 
-1.72896 2.89571 0.0 
1.12419 -1.84975 0.0 
1.59054 -1.20634 0.0 
0.46124 0.621002 0.0 
0.806438 -1.00204 0.0 
2.1804 0.349761 0.0 
2.21142 -1.6418 0.0 
1.10152 -0.274558 0.0 
2.23388 0.387302 0.0 
0.137769 0.567007 0.0 
1.88736 0.267391 0.0 
1.26821 -1.94267 0.0 
0.21033 -0.605707 0.0 
2.61094 -1.50046 0.0 
0.819837 0.743337 0.0 
-1.4303 2.07799 0.0 
1.82013 0.322126 0.0 
-1.47649 2.2099 0.0 
1.15745 -0.274223 0.0 
-1.81198 2.24994 0.0 
2.34337 -1.67775 0.0 
-1.13329 1.37877 0.0 
-0.828215 1.05292 0.0 
2.46752 -1.53452 0.0 
-1.69915 2.18529 0.0 
-0.404416 -0.286271 0.0 
-1.23501 1.31766 0.0 
2.11757 -1.50659 0.0 
-1.08535 1.28274 0.0 
2.58548 -1.70783 0.0 
0.24729 -0.572345 0.0 
-1.66963 2.25319 0.0 
1.58322 -1.62308 0.0 
-0.367923 -0.306026 0.0 
0.391521 1.44485 0.0 
1.88977 -2.46319 0.0 
1.5943 -1.53613 0.0 
-0.357143 -0.23651 0.0 
0.82621 0.80563 0.0 
-1.59261 2.31884 0.0 
-0.47244 -0.307516 0.0 
-0.40334 -0.326688 0.0 
-2.00063 2.11543 0.0 
1.55514 -1.95078 0.0 
-1.40431 2.26352 0.0 
-0.0265928 0.573714 0.0 
1.17093 1.10579 0.0 
-1.77907 2.22111 0.0 
0.682788 0.329642 0.0 
-0.54475 2.15572 0.0 
-0.288592 0.289433 0.0 
-1.43199 2.16349 0.0 
-1.45029 2.25134 0.0 
1.5535 -1.79992 0.0 
-1.06406 1.08381 0.0 
1.72954 1.44966 0.0 
0.582806 0.515814 0.0 
0.582876 -0.679913 0.0 
1.32351 -0.355916 0.0 
-0.47505 0.577092 0.0 
-0.371167 0.227715 0.0 
1.52235 -1.8529 0.0 
-0.429822 -0.244811 0.0 
-0.53237 -0.24648 0.0 
-0.393983 -0.210364 0.0 
0.652895 0.317361 0.0 
1.55812 -1.70765 0.0 
1.63021 0.325622 0.0 
0.442731 0.358729 0.0 
1.22925 -1.85192 0.0 
1.43517 -1.79082 0.0 
1.39317 -1.6984 0.0 
1.62965 0.295952 0.0 
0.905462 0.793465 0.0 
1.04036 -1.64811 0.0 
2.1131 -1.72466 0.0 
-0.743911 0.369492 0.0 
1.14427 -1.99314 0.0 
1.26033 -2.0209 0.0 
-1.70955 2.07308 0.0 
0.910023 -1.62976 0.0 
-0.313059 -0.0954838 0.0 
-1.77334 2.3988 0.0 
-0.311958 -0.24042 0.0 
2.53315 0.325608 0.0 
-0.273728 -0.226719 0.0 
-0.646401 0.379627 0.0 
1.52426 0.616074 0.0 
2.21703 -1.79499 0.0 
2.71108 0.312216 0.0 
0.759924 1.093 0.0 
-1.69271 2.12368 0.0 
0.255794 0.540969 0.0 
0.0534699 0.562158 0.0 
-1.5679 2.22408 0.0 
-1.66906 2.45165 0.0 
-1.51895 2.09449 0.0 
2.16948 0.408238 0.0 
-0.818806 0.680638 0.0 
-0.826868 0.642087 0.0 
0.519855 0.276992 0.0 
-0.716682 1.18602 0.0 
-0.649974 -0.148775 0.0 
0.457368 0.256619 0.0 
0.517407 0.248194 0.0 
0.327129 0.39802 0.0 
0.533249 -0.878832 0.0 
-0.870735 0.634904 0.0 
1.19219 1.07557 0.0 
2.35922 0.366028 0.0 
-1.66911 3.66723 0.0 
-0.857603 1.54934 0.0 
-0.379189 2.30131 0.0 
-0.941007 1.36523 0.0 
-1.58662 2.49682 0.0 
-0.545297 0.352587 0.0 
0.327944 -0.744683 0.0 
-0.312756 0.524741 0.0 
-0.107843 0.506233 0.0 
2.13378 -2.36584 0.0 
1.52689 0.686953 0.0 
-0.119983 0.327909 0.0 
1.02161 -1.53072 0.0 
1.51507 0.39695 0.0 
-0.674484 1.02605 0.0 
-0.564724 -0.148435 0.0 
0.409388 0.290913 0.0 
0.252349 0.30842 0.0 
-1.09282 1.45998 0.0 
1.45674 -1.54484 0.0 
-0.266777 0.782169 0.0 
0.91327 -0.874389 0.0 
1.01208 1.13309 0.0 
-0.897136 1.35063 0.0 
-0.846484 0.489353 0.0 
1.47563 0.663768 0.0 
-1.22282 2.05021 0.0 
0.348906 0.416714 0.0 
1.41913 0.964648 0.0 
0.933289 -0.839038 0.0 
-1.85066 1.40221 0.0 
0.142477 1.99435 0.0 
-0.717809 0.341194 0.0 
-2.21177 1.41584 0.0 
0.396571 0.350929 0.0 
1.25171 -1.60721 0.0 
0.736798 0.393502 0.0 
-0.661427 0.19031 0.0 
2.18751 -2.32769 0.0 
-1.00908 1.6747 0.0 
2.21416 -2.07269 0.0 
-0.779194 0.642011 0.0 
-1.02312 1.3939 0.0 
2.08809 -2.24876 0.0 
-5 -4.48794 0.0 
1.61792 -1.46215 0.0 
-0.974627 1.38947 0.0 
1.81166 -2.48446 0.0 
-1.03635 1.47474 0.0 
0.869004 -1.74424 0.0 
0.956579 -1.78598 0.0 
1.07495 0.540689 0.0 
-1.08005 1.37763 0.0 
0.914755 -0.803058 0.0 
0.611759 -0.305322 0.0 
1.70043 -1.41356 0.0 
0.75708 -0.631542 0.0 
1.21215 1.01979 0.0 
-0.586902 0.440014 0.0 
1.9251 -2.56336 0.0 
-1.58261 1.91091 0.0 
-0.746541 1.26087 0.0 
-1.49915 1.13657 0.0 
-1.46675 0.971536 0.0 
-1.05881 0.930935 0.0 
0.71826 0.415078 0.0 
-0.701697 0.526982 0.0 
-1.56194 2.05157 0.0 
1.15988 0.991244 0.0 
1.38676 0.949615 0.0 
-1.61697 2.02689 0.0 
1.13748 -0.357331 0.0 
-1.8456 2.04561 0.0 
0.253686 -0.756334 0.0 
-1.53603 1.86509 0.0 
-1.43465 0.924137 0.0 
-1.00273 1.27416 0.0 
-1.03063 1.5132 0.0 
-1.32483 1.94769 0.0 
-0.965552 1.61445 0.0 
-0.239859 -0.245939 0.0 
-5 3.01776 0.0 
-5 -0.248741 0.0 
0.517491 1.87079 0.0 
-1.18776 1.8875 0.0 
2.27458 0.36201 0.0 
1.9794 0.331487 0.0 
0.503086 0.510306 0.0 
1.26387 -0.370702 0.0 
1.24483 0.550197 0.0 
1.12871 0.979556 0.0 
-1.48659 1.83259 0.0 
1.0672 0.958366 0.0 
-1.16856 1.61214 0.0 
-0.218637 -0.230696 0.0 
-5 1.81431 0.0 
1.37014 1.04658 0.0 
0.0950623 0.557621 0.0 
-1.23613 1.67303 0.0 
0.953731 -0.709843 0.0 
2.07568 -1.85385 0.0 
2.10836 -1.82014 0.0 
-0.994952 1.33552 0.0 
-1.86986 1.52312 0.0 
0.515812 0.447542 0.0 
0.842446 0.992035 0.0 
-1.42353 1.8223 0.0 
2.091 0.354014 0.0 
-0.937663 0.401428 0.0 
-1.69305 1.41997 0.0 
-1.82465 1.55127 0.0 
2.15192 0.384657 0.0 
-1.17972 1.37998 0.0 
-0.718866 -0.0130647 0.0 
-0.927867 0.290435 0.0 
1.56509 0.300406 0.0 
-5 -3.04052 0.0 
9.98027 -7 0.0 
0.176009 0.694641 0.0 
0.597997 -0.559941 0.0 
-0.546583 0.4849 0.0 
0.602022 -0.657834 0.0 
2.17737 0.379672 0.0 
1.89809 0.287017 0.0 
-1.58883 1.35796 0.0 
-1.2284 1.37063 0.0 
-1.43937 1.35342 0.0 
-1.59664 1.47263 0.0 
0.577431 -0.368705 0.0 
1.5263 -1.51093 0.0 
0.479666 0.796509 0.0 
0.894995 1.01463 0.0 
2.22312 0.363016 0.0 
-0.320562 0.726481 0.0 
-1.30188 2.41386 0.0 
0.43802 0.434693 0.0 
-0.761697 0.762024 0.0 
1.45688 -1.49591 0.0 
-0.65072 0.676835 0.0 
1.6097 -1.41509 0.0 
2.25768 0.399237 0.0 
1.85518 0.299709 0.0 
2.14618 0.290757 0.0 
2.25222 0.371677 0.0 
-1.93063 2.91367 0.0 
1.52717 0.319618 0.0 
1.67964 -1.62237 0.0 
1.35962 -0.439169 0.0 
1.63007 -1.54335 0.0 
-5 -0.764504 0.0 
-1.61377 2.62271 0.0 
1.73865 -1.57725 0.0 
-0.908306 1.23669 0.0 
1.60766 0.330292 0.0 
1.82509 -1.63054 0.0 
1.90521 0.312457 0.0 
1.98719 -1.6488 0.0 
-0.528791 0.39225 0.0 
1.94978 -2.39003 0.0 
-0.472559 0.718465 0.0 
-1.28058 2.26572 0.0 
0.881581 -0.556282 0.0 
2.26369 0.42542 0.0 
0.917309 -1.69962 0.0 
0.853954 -1.60945 0.0 
1.30086 -0.404316 0.0 
1.99565 -2.46852 0.0 
1.49445 -1.47573 0.0 
1.68285 0.863315 0.0 
2.03074 -2.37549 0.0 
2.52279 -0.506167 0.0 
2.56049 -1.76899 0.0 
-1.52889 2.56597 0.0 
2.81136 -0.570221 0.0 
1.3688 -1.46095 0.0 
1.29524 -0.373946 0.0 
-0.350504 0.671928 0.0 
-0.590282 0.564035 0.0 
-0.054366 2.16706 0.0 
1.50819 1.22548 0.0 
-0.548222 0.453941 0.0 
2.19936 -2.5207 0.0 
12.2704 -7 0.0 
1.6811 -1.36761 0.0 
-0.449261 0.559535 0.0 
0.537017 -0.527614 0.0 
-0.00733391 0.553304 0.0 
0.494109 -0.356396 0.0 
-0.7939 0.0827441 0.0 
0.39888 0.467333 0.0 
-1.04288 1.34095 0.0 
0.605019 1.02824 0.0 
0.847559 0.374727 0.0 
1.00336 0.618307 0.0 
2.1955 0.399186 0.0 
0.656973 0.401158 0.0 
-0.998431 2.73564 0.0 
[...]
<PointData>
  <DataArray type = "Float64" Name="VitesseP1" NumberOfComponents="3" format="ascii">
1 0 0.0 
1.09406 0 0.0 
1.03627 0 0.0 
1 0 0.0 
0.994638 0.0156508 0.0 
0.996926 0.0110024 0.0 
0.995513 0.0134678 0.0 
1.04272 -0.00374659 0.0 
1.04477 -0.00472963 0.0 
1.05029 -0.0043074 0.0 
0.997767 0.0119248 0.0 
0.986663 0.0726087 0.0 
0.99662 0.011332 0.0 
0.996833 0.0121156 0.0 
0.998919 0.0119267 0.0 
0.992074 0.218362 0.0 
1.02011 0.0533715 0.0 
1.04972 -0.0262474 0.0 
0.998843 0.0113512 0.0 
0.995048 0.0143906 0.0 
1.05512 -0.0272212 0.0 
0.998871 0.0132387 0.0 
1.16037 -0.0268125 0.0 
1.04699 0.0120064 0.0 
1.06433 -0.00239895 0.0 
0.998838 0.0128196 0.0 
0.944505 0.00863619 0.0 
1.06364 -0.0223194 0.0 
0.0633633 -0.000276364 0.0 
0.988841 0.0312382 0.0 
1.14355 0.0690008 0.0 
1.11002 0.142925 0.0 
0.99886 0.0122523 0.0 
1.03455 -0.0178948 0.0 
0.941345 0.0122287 0.0 
1.00546 0.0301275 0.0 
0.93682 -0.0514932 0.0 
1.08548 -0.00228509 0.0 
1.05713 0.00840275 0.0 
1.05448 -0.0160189 0.0 
1.05735 -0.00541743 0.0 
0.926774 0.151705 0.0 
1.07577 -0.0116046 0.0 
1.12727 0.000968464 0.0 
1.06907 0.0067946 0.0 
1.06411 -0.0141125 0.0 
1.06423 0.0344485 0.0 
1.05812 0.024169 0.0 
1.20209 0.0315449 0.0 
0.939504 0.0355905 0.0 
1.04141 -0.00374248 0.0 
1.00249 0.0121412 0.0 
0.999831 0.0173637 0.0 
1.04084 -0.0053329 0.0 
1.03742 0.243485 0.0 
0.041536 -0.00660188 0.0 
1.04452 -0.00269678 0.0 
1.00271 0.0125353 0.0 
0.999103 0.0154808 0.0 
1.15477 0.00279603 0.0 
0.104656 -0.00407125 0.0 
1.00239 0.0128094 0.0 
1.09761 0.0609422 0.0 
1.12308 0.121585 0.0 
0.527723 0.00521899 0.0 
1.06128 -0.0271698 0.0 
1.05287 0.00406808 0.0 
0.554406 0.134608 0.0 
0.862642 0.0854528 0.0 
1.17959 -0.00144338 0.0 
1.20313 -0.038611 0.0 
1.06763 -0.0116962 0.0 
0.999054 0.0139495 0.0 
1 0 0.0 
0.267618 -0.0139499 0.0 
1.00216 0.012395 0.0 
0.96811 0.0105196 0.0 
0.999076 0.0143046 0.0 
1.00177 0.011591 0.0 
1.17549 0.0376252 0.0 
1.03812 0.023715 0.0 
0.749833 -0.0407332 0.0 
0.947626 0.26322 0.0 
1.17339 0.116519 0.0 
0.946142 0.0141763 0.0 
0.969924 0.00881504 0.0 
1.00206 0.012015 0.0 
1.06266 -0.0253835 0.0 
1.14402 0.0986004 0.0 
0.999141 0.0146512 0.0 
1.04465 0.0281963 0.0 
1.04256 -0.014602 0.0 
1.09761 0.0800973 0.0 
0.935456 0.0700517 0.0 
1.12537 0.125742 0.0 
0.999888 0.0127389 0.0 
1.00216 0.0108228 0.0 
-0.0147367 -0.146741 0.0 
0.999247 0.0138784 0.0 
1.19088 -0.234713 0.0 
0.944035 0.022955 0.0 
0.918665 -0.0885277 0.0 
0.915447 -0.0746276 0.0 
1.04705 -0.0040518 0.0 
0.924289 -0.0784407 0.0 
0.967165 -0.00823081 0.0 
1.04223 -0.0165717 0.0 
1.06947 -0.00306291 0.0 
1.19605 0.0851803 0.0 
1.03789 -0.0160771 0.0 
0.919985 -0.0887917 0.0 
0.95484 -0.00372594 0.0 
0.0676887 0.00246495 0.0 
1.20418 0.0384253 0.0 
1.04406 -0.00383943 0.0 
1.03631 -0.0179282 0.0 
1.03843 -0.00797068 0.0 
1.04177 -0.0114725 0.0 
1.03563 -0.0118435 0.0 
1.03264 -0.0168942 0.0 
1.16311 0.185032 0.0 
1.03932 -0.00630625 0.0 
0.877166 0.126039 0.0 
0.999103 0.0208447 0.0 
1.03516 -0.0204982 0.0 
1.04149 0.00524653 0.0 
1.03733 -0.0229044 0.0 
1.19568 0.0925593 0.0 
1.06142 -0.014634 0.0 
1.00008 0.0179853 0.0 
1.03928 -0.00841663 0.0 
1.03011 0.0467615 0.0 
1.00074 0.0137679 0.0 
1.03698 -0.0205342 0.0 
1.05921 -0.0109723 0.0 
1.08738 0.189657 0.0 
1.06846 -0.0735847 0.0 
0.126373 0.00375575 0.0 
1.05487 0.0230838 0.0 
0.455177 -0.0391795 0.0 
0.368422 -0.00787261 0.0 
0.977519 0.196744 0.0 
0.0683635 -0.00723029 0.0 
1.03797 -0.0138844 0.0 
1.0305 -0.160799 0.0 
1.05198 0.0501167 0.0 
1.1396 0.1217 0.0 
0.998806 0.0194615 0.0 
0.0763448 0.00372328 0.0 
0.998975 0.0185361 0.0 
0.408527 -0.0171348 0.0 
0.998784 0.0145774 0.0 
1.04653 0.0278681 0.0 
0.985234 0.0244874 0.0 
0.97349 0.0343236 0.0 
1.05716 0.0389918 0.0 
0.998616 0.0158226 0.0 
0.922674 -0.0796709 0.0 
0.984233 0.0209067 0.0 
1.06811 0.0207516 0.0 
0.981667 0.0253502 0.0 
1.03367 0.0347591 0.0 
1.0398 -0.171293 0.0 
0.998902 0.0161105 0.0 
1.0592 -0.0066363 0.0 
0.920083 -0.0860493 0.0 
1.03478 0.0696746 0.0 
1.04791 -0.00173746 0.0 
1.06806 -0.00704215 0.0 
0.916325 -0.0818413 0.0 
1.1331 0.113522 0.0 
0.999217 0.0168878 0.0 
0.927574 -0.0728716 0.0 
0.922124 -0.0827506 0.0 
0.998641 0.0126492 0.0 
1.04175 -0.00458825 0.0 
0.999472 0.0193582 0.0 
0.938854 0.15167 0.0 
1.13204 0.0502193 0.0 
0.998726 0.014934 0.0 
0.630583 0.110732 0.0 
1.00614 0.0342086 0.0 
0.863224 0.0453834 0.0 
0.998934 0.0192524 0.0 
0.999277 0.01878 0.0 
1.04528 -0.00601298 0.0 
0.974019 0.023853 0.0 
1.07422 -0.0422795 0.0 
1.14111 0.200462 0.0 
1.10859 -0.129284 0.0 
0.867705 -0.0310705 0.0 
0.93817 0.051861 0.0 
0.874914 0.0163227 0.0 
1.04419 -0.00665147 0.0 
0.923934 -0.0732275 0.0 
0.933077 -0.062712 0.0 
0.918653 -0.0743676 0.0 
0.578515 0.110947 0.0 
1.05036 -0.00683861 0.0 
0.109681 0.0171057 0.0 
1.03624 0.265351 0.0 
1.03937 -0.0169958 0.0 
1.04403 -0.0106868 0.0 
1.0488 -0.0140088 0.0 
0.0900862 0.0255336 0.0 
1.14314 0.105253 0.0 
1.04375 -0.0291538 0.0 
1.04802 0.017309 0.0 
0.941394 0.00847285 0.0 
1.03386 -0.0168071 0.0 
1.03594 -0.0125435 0.0 
0.998748 0.0157075 0.0 
1.04087 -0.034442 0.0 
0.898413 -0.0656119 0.0 
0.999069 0.0148204 0.0 
0.909552 -0.0858619 0.0 
0.168748 -0.00725686 0.0 
0.887668 -0.0840494 0.0 
0.932577 0.0160004 0.0 
1.20202 0.0494147 0.0 
1.04389 0.0207202 0.0 
0.242239 -0.0205753 0.0 
1.09691 0.087682 0.0 
0.998567 0.015908 0.0 
1.01877 0.223353 0.0 
0.951383 0.177443 0.0 
0.998905 0.0173485 0.0 
0.99935 0.0157574 0.0 
0.99877 0.0181694 0.0 
0.517518 -0.0029725 0.0 
0.967678 0.0250091 0.0 
0.965376 0.0225145 0.0 
0.412736 0.135794 0.0 
0.976585 0.0407701 0.0 
0.940081 -0.0445476 0.0 
0.300179 0.101382 0.0 
0.374223 0.184496 0.0 
1.06265 0.297154 0.0 
1.06885 -0.103126 0.0 
0.967138 0.0194293 0.0 
1.13965 0.050613 0.0 
0.252093 -0.0126033 0.0 
1.00072 0.0114166 0.0 
0.990455 0.0335547 0.0 
1.00964 0.0345978 0.0 
0.983858 0.0309409 0.0 
0.999659 0.0164823 0.0 
0.918683 0.0212648 0.0 
1.05842 -0.131717 0.0 
0.91891 0.0756551 0.0 
0.908597 0.132036 0.0 
1.04741 0.0139963 0.0 
1.1937 0.0463697 0.0 
0.829723 0.116723 0.0 
1.0557 -0.0339811 0.0 
0.545854 0.0228005 0.0 
0.975811 0.0434188 0.0 
0.932458 -0.0504346 0.0 
0.700386 0.194659 0.0 
0.89853 0.339101 0.0 
0.987343 0.0261387 0.0 
1.06579 -0.0137448 0.0 
0.967276 0.0862695 0.0 
1.11285 -0.0770324 0.0 
1.11236 0.0631038 0.0 
0.983241 0.0325926 0.0 
0.956258 0.0119885 0.0 
1.19409 0.0513431 0.0 
0.999204 0.0228491 0.0 
1.07697 0.284247 0.0 
1.16842 0.038916 0.0 
1.12329 -0.0780673 0.0 
0.994103 0.0100304 0.0 
1.0185 0.0449342 0.0 
0.937403 0.00736274 0.0 
0.997238 0.00836658 0.0 
1.01745 0.284612 0.0 
1.05504 -0.021871 0.0 
0.997523 0.15194 0.0 
0.925063 -0.00671856 0.0 
1.03718 0.0329074 0.0 
0.992885 0.0285824 0.0 
1.03746 0.017434 0.0 
0.96279 0.0257064 0.0 
0.985078 0.0281416 0.0 
1.03745 0.0082745 0.0 
1 0 0.0 
1.06876 -0.00648386 0.0 
0.984805 0.0297888 0.0 
1.04596 -0.00102224 0.0 
0.98764 0.0279195 0.0 
1.03123 -0.0315263 0.0 
1.03347 -0.0276427 0.0 
1.19302 0.101571 0.0 
0.984868 0.0261734 0.0 
1.12892 -0.0826777 0.0 
0.912446 -0.146813 0.0 
1.0672 -0.00229876 0.0 
1.12727 -0.115156 0.0 
1.14828 0.0532196 0.0 
0.931299 0.027259 0.0 
1.03675 0.00141808 0.0 
0.995979 0.0170966 0.0 
0.97984 0.0391202 0.0 
0.984098 0.0110447 0.0 
0.995509 0.0102985 0.0 
0.990078 0.0211838 0.0 
1.08795 0.169005 0.0 
0.948573 0.0244984 0.0 
0.998741 0.0175481 0.0 
1.14676 0.0606266 0.0 
1.16697 0.0425904 0.0 
0.998486 0.0167982 0.0 
0.928926 -0.0575564 0.0 
0.999104 0.0141033 0.0 
1.04257 -0.128471 0.0 
0.995079 0.0176902 0.0 
1.00022 0.0109491 0.0 
0.980808 0.0282367 0.0 
0.988892 0.0281567 0.0 
0.996626 0.0212567 0.0 
0.991966 0.0299759 0.0 
0.882018 -0.105847 0.0 
1 0 0.0 
1 0 0.0 
1.03206 0.046131 0.0 
0.995309 0.0238973 0.0 
0.205315 -0.00968237 0.0 
0.0556898 0.0115531 0.0 
1.11667 0.217605 0.0 
0.957184 -0.0458515 0.0 
1.20066 0.0789908 0.0 
1.14524 0.0646738 0.0 
0.994511 0.0183968 0.0 
1.14195 0.0726228 0.0 
0.991872 0.0244601 0.0 
0.948119 -0.164204 0.0 
1 0 0.0 
1.1589 0.0361561 0.0 
0.961672 0.190074 0.0 
0.992814 0.0229687 0.0 
1.14335 -0.085684 0.0 
1.04403 0.0144453 0.0 
1.04437 0.0161461 0.0 
0.982929 0.0288922 0.0 
0.995371 0.0112679 0.0 
1.12783 0.232824 0.0 
1.11896 0.0916645 0.0 
0.994264 0.0194455 0.0 
0.14121 0.00369966 0.0 
0.958503 0.0010704 0.0 
0.992137 0.0120643 0.0 
0.9953 0.0119762 0.0 
0.33833 -6.6905e-05 0.0 
0.98558 0.0231005 0.0 
0.948446 -0.0294466 0.0 
0.953637 -0.00694242 0.0 
0.0943213 -0.0106935 0.0 
1 0 0.0 
1.07199 0 0.0 
1.00787 0.166334 0.0 
1.11957 -0.146495 0.0 
0.932051 0.0357509 0.0 
1.11247 -0.130587 0.0 
0.305231 -0.00134749 0.0 
0.0789784 -0.0042371 0.0 
0.989685 0.0127932 0.0 
0.985713 0.0216193 0.0 
0.987491 0.0159244 0.0 
0.991702 0.0142143 0.0 
1.10754 -0.173738 0.0 
1.06776 -0.0107805 0.0 
1.07994 0.147515 0.0 
1.122 0.0846383 0.0 
0.206815 -0.00281861 0.0 
0.956793 0.079122 0.0 
1.00059 0.0200547 0.0 
1.11081 0.257604 0.0 
0.972331 0.0324293 0.0 
1.06694 -0.0146743 0.0 
0.959365 0.0377667 0.0 
1.06664 -0.00748597 0.0 
0.456988 -0.0115124 0.0 
0.0782465 0.00728528 0.0 
0.0647909 0.00703415 0.0 
0.266063 -0.00612319 0.0 
0.999823 0.0121777 0.0 
0.0807201 0.00140791 0.0 
1.05993 -0.00212478 0.0 
1.15849 -0.0434893 0.0 
1.06806 -0.00517227 0.0 
1 0 0.0 
0.999782 0.0157881 0.0 
1.06607 0.000626295 0.0 
0.979196 0.0318222 0.0 
0.0961701 0.00771595 0.0 
1.0597 0.004881 0.0 
0.0758028 -0.00113054 0.0 
1.05698 0.0124831 0.0 
0.920373 0.0279456 0.0 
1.04272 0.000159696 0.0 
0.957438 0.0582018 0.0 
0.999959 0.0210478 0.0 
1.19547 -0.11063 0.0 
0.646168 -0.012767 0.0 
1.03539 -0.0315375 0.0 
1.04142 -0.0370231 0.0 
1.06689 -0.04526 0.0 
1.05582 0.0100046 0.0 
1.06749 -0.0130189 0.0 
1.19073 0.0241084 0.0 
1.04224 0.0140648 0.0 
1.24746 0.0821253 0.0 
1.03539 0.0300995 0.0 
0.999986 0.0168294 0.0 
1.18142 0.107156 0.0 
1.06491 -0.0198545 0.0 
0.970002 -0.0459967 0.0 
0.947846 0.0740782 0.0 
0.944282 0.0372508 0.0 
1.01435 0.0413245 0.0 
1.13776 -9.2433e-05 0.0 
0.928952 0.0326004 0.0 
1.00519 -0.00634761 0.0 
1.06944 0 0.0 
1.06359 -0.00367757 0.0 
0.933892 0.0543516 0.0 
1.13928 -0.164053 0.0 
0.935634 0.160643 0.0 
1.10212 -0.195156 0.0 
0.952554 -0.0201938 0.0 
1.08738 0.251433 0.0 
0.983392 0.0271987 0.0 
1.08802 0.105155 0.0 
0.785374 0.101718 0.0 
1.17605 0.107742 0.0 
0.451496 -0.0052065 0.0 
1.07451 0.187009 0.0 
1.00407 0.0211083 0.0 
1.05673 0.0153532 0.0 
1.04308 0.00871413 0.0 
1.04762 -0.00104831 0.0 
1.04619 6.93339e-05 0.0 
0.0563845 0.00723485 0.0 
1.04208 0.00201895 0.0 
-0.0706634 0.0235525 0.0 
1.03432 -0.0322839 0.0 
1.00421 0.034696 0.0 
1.0447 0.00935317 0.0 
1 0 0.0 
0.983374 0.0260365 0.0 
1.19372 0.0974942 0.0 
0.727126 -0.0323474 0.0 
0.999634 0.0152326 0.0 
0.991979 0.0387228 0.0 
1.0501 0.0101296 0.0 
1.05497 0.00519223 0.0 
0.939799 0.189346 0.0 
0.777587 0.130783 0.0 
1.0044 0.0181742 0.0 
1.14167 0.127437 0.0 
0.999667 0.243749 0.0 
0.999143 0.0118835 0.0 
0.986086 0.0289571 0.0 
1.05133 0.00105577 0.0 
0.937909 0.124835 0.0 
0.150536 0.0260336 0.0 
1.05034 0.00321925 0.0 
0.172756 0.0988984 0.0 
1.0505 -0.0010556 0.0 
0.997373 -0.0102173 0.0 
1.01661 0.0465332 0.0 
1.10364 -0.0361306 0.0 
1.04709 0.00218388 0.0 
0.957134 -0.00633504 0.0 
0.333474 0.0138488 0.0 
1.06357 -0.0232208 0.0 
0.946675 -0.00152872 0.0 
0.999841 0.014926 0.0 
1.06105 -0.0281635 0.0 
0.941877 0.0657658 0.0 
1.19797 -0.0461473 0.0 
0.235942 0.00268464 0.0 
0.576222 -0.0166865 0.0 
0.941184 -0.00471234 0.0 
0.964357 0.272745 0.0 
0.250244 0.047931 0.0 
0.996467 0.31629 0.0 
0.917129 -0.00390085 0.0 
1.07909 -0.0435344 0.0 
0.682316 0.00327754 0.0 
0.356151 0.11629 0.0 
1.10354 0.0709134 0.0 
0.998738 0.0119937 0.0 
0.533924 0.00396989 0.0 
0.137181 0.0501965 0.0 
0.914454 -0.0434897 0.0 
0.728119 -0.0217733 0.0 
1.03196 0.0465591 0.0 
0.998803 0.0115945 0.0 
1.02612 -0.0983011 0.0 
1.11299 -0.0351026 0.0 
1.17642 0.0266847 0.0 
0.0784184 0.000564358 0.0 
0.936326 -0.057766 0.0 
1.03481 0.0434674 0.0 
1.06761 -0.00863916 0.0 
0.938155 -0.00910611 0.0 
0.067083 0.00769783 0.0 
0.998831 0.0125118 0.0 
1.17489 0.0312074 0.0 
1.05941 -0.0273794 0.0 
0.963695 0.21647 0.0 
1.05317 0.0160835 0.0 
1.06924 -0.000260204 0.0 
1.06937 0.00457306 0.0 
0.95461 0.0375336 0.0 
1.0614 -0.0251517 0.0 
0.998962 0.0136831 0.0 
0.952316 0.00696621 0.0 
1.13684 -0.0341518 0.0 
1.05561 0.0199003 0.0 
0.989406 0.007195 0.0 
0.953497 0.0152387 0.0 
0.999003 0.0138663 0.0 
1.05889 0.00461889 0.0 
1.04148 -0.00559792 0.0 
1.06121 -0.0223813 0.0 
0.990571 0.00883192 0.0 
1.02225 0.0469555 0.0 
0.998908 0.0131383 0.0 
1.04492 -0.0269335 0.0 
1.06667 0.0189799 0.0 
0.0585336 0.0141959 0.0 
0.0496689 0.0110658 0.0 
1.06983 0.0149143 0.0 
0.905296 -0.0565329 0.0 
0.886761 -0.048183 0.0 
0.876704 0.120982 0.0 
0.999453 0.0137997 0.0 
0.998893 0.0137883 0.0 
0.962922 -0.0133044 0.0 
0.965074 -0.00208978 0.0 
1.03471 0.0265041 0.0 
0.963636 0.235346 0.0 
1.06741 0.152768 0.0 
1.03025 -0.0446619 0.0 
0.0644278 -0.00124191 0.0 
1.1639 0.0261175 0.0 
1.10117 0.146039 0.0 
0.998747 0.0133146 0.0 
1.01617 0.0365552 0.0 
1.11569 -0.00752142 0.0 
0.982891 0.0208425 0.0 
0.934563 0.0464649 0.0 
1.03052 -0.0295496 0.0 
0.973454 0.0373293 0.0 
0.941266 0.109204 0.0 
0.934232 0.0590187 0.0 
0.770725 -0.0306583 0.0 
0.962958 0.00701084 0.0 
0.786743 -0.0483378 0.0 
1.00107 0.0179753 0.0 
1.03199 0.0426839 0.0 
0.953916 -0.0103299 0.0 
0.961656 -0.0011346 0.0 
0.922687 0.0342242 0.0 
1.10029 0.249845 0.0 
0.972412 0.00596512 0.0 
0.941267 0.292206 0.0 
0.945482 0.0327688 0.0 
0.975101 0.226899 0.0 
0.848868 0.286284 0.0 
0.995232 0.00740541 0.0 
1.00082 0 0.0 
0.998846 0.0119886 0.0 
0.977346 0.00142358 0.0 
0.891252 0.154513 0.0 
0.130395 0.00885656 0.0 
1.01092 0.0429386 0.0 
0.980833 0.00703033 0.0 
0.999422 0.012383 0.0 
0.915725 -0.0719618 0.0 
0.916698 0.0330204 0.0 
1.19514 -0.0348024 0.0 
0.998738 0.0122542 0.0 
0.952013 0.0742789 0.0 
0.706487 -0.0618459 0.0 
1.03338 -0.0235981 0.0 
0.936293 0.0637627 0.0 
0.995343 0.0160502 0.0 
0.944515 0.0275171 0.0 
0.991145 0.0198877 0.0 
0.0780198 0.0118714 0.0 
0.699381 -0.053317 0.0 
1.04427 -0.00290969 0.0 
1.15842 0.0832941 0.0 
1.13023 -0.0206508 0.0 
0.997729 0.0105714 0.0 
0.982291 0.018462 0.0 
1.00245 0.2029 0.0 
1.11438 0.158969 0.0 
0.57954 0.0957425 0.0 
0.951109 0.18955 0.0 
0.981667 0.018831 0.0 
0.245346 -0.0112429 0.0 
0.982672 0.0217449 0.0 
0.997333 0.0126066 0.0 
1.00039 0.0194239 0.0 
0.191144 -0.0137825 0.0 
0.156918 -0.00388499 0.0 
0.981891 0.0299993 0.0 
0.33537 0.058156 0.0 
1.19271 0.0933572 0.0 
1.01015 0.0424418 0.0 
0.98106 0.0322643 0.0 
0.999756 0.0193323 0.0 
0.977997 0.0111225 0.0 
0.930382 0.0688308 0.0 
0.976678 0.0256698 0.0 
0.851854 0.285425 0.0 
0.441315 -0.0262082 0.0 
0.182871 0.00213185 0.0 
0.968281 0.0134233 0.0 
0.974877 0.0120358 0.0 
1.05431 0.205533 0.0 
0.249202 -0.0204177 0.0 
0.939955 0.0209685 0.0 
1.03376 -0.0390972 0.0 
0.982885 0.246367 0.0 
0.999302 0.0134414 0.0 
0.922614 0.081985 0.0 
0.972498 0.030927 0.0 
0.930175 0.143628 0.0 
0.956196 0.157199 0.0 
1.00867 0.255849 0.0 
0.666925 -0.0243618 0.0 
0.937331 -0.0525003 0.0 
1.11783 0.05971 0.0 
0.466498 0.0938073 0.0 
0.926417 -0.0598077 0.0 
0.0749498 0.00129229 0.0 
0.899032 -0.0129016 0.0 
0.745456 0.136361 0.0 
0.915073 -0.0665437 0.0 
0.922176 -0.0562814 0.0 
0.612044 0.165308 0.0 
1.04685 0.00723576 0.0 
0.940899 0.173805 0.0 
0.879668 -0.00492725 0.0 
0.928314 -0.0538733 0.0 
1.04097 -0.00548154 0.0 
0.338003 0.0415648 0.0 
1.03761 -0.0087767 0.0 
0.8661 0.00742815 0.0 
0.89546 0.21772 0.0 
1.04929 -0.00144028 0.0 
0.906597 -0.0882132 0.0 
0.918867 0.183504 0.0 
0.232682 -0.0188222 0.0 
1.13151 0.0625663 0.0 
1.03212 0.171347 0.0 
0.830265 0.380993 0.0 
1.10223 0.166106 0.0 
1.06318 0.260713 0.0 
0.90979 -0.0315476 0.0 
0.66588 -0.0744676 0.0 
0.97779 0.033284 0.0 
0.516868 0.0621737 0.0 
0.918404 -0.052762 0.0 
1.04754 0.0674599 0.0 
0.130628 -0.00622049 0.0 
1.04366 0.264398 0.0 
1.05968 0.0414726 0.0 
0.879039 0.105499 0.0 
1.00511 0.0216199 0.0 
0.892818 0.0670888 0.0 
0.0787939 0.0057061 0.0 
0.853322 0.0765619 0.0 
0.949519 0.0368872 0.0 
0.947414 0.003818 0.0 
1.17407 -0.0398844 0.0 
0.762987 0.335651 0.0 
0.847672 0.0892966 0.0 
1.02929 0.0730271 0.0 
1.08198 -0.0958285 0.0 
0.921056 -0.0469913 0.0 
1.03903 0.272631 0.0 
0.96481 0.016827 0.0 
0.995879 0.0400705 0.0 
0.910334 0.0771792 0.0 
0.924646 0.112903 0.0 
0.91076 0.0354772 0.0 
1.00906 0.02714 0.0 
0.919883 0.106196 0.0 
0.917314 0.221255 0.0 
0.999229 0.0125388 0.0 
1.09193 -0.0714457 0.0 
0.249288 -0.0190842 0.0 
1.0526 0.252065 0.0 
0.966106 0.203557 0.0 
0.80708 0.151462 0.0 
0.826942 0.0382944 0.0 
0.886355 0.0298983 0.0 
1.04162 0.305845 0.0 
0.999619 0.0171851 0.0 
1.12504 0.141468 0.0 
1.03296 0.227185 0.0 
0.886301 -0.0483685 0.0 
0.922993 -0.00197627 0.0 
0.858347 0.158683 0.0 
0.911033 0.0206761 0.0 
0.885226 0.0148827 0.0 
0.932337 -0.0461919 0.0 
0.934094 0.20769 0.0 
0.99579 0.0301311 0.0 
0.999614 0.0147001 0.0 
0.0654344 0.00986542 0.0 
0.0691169 0.00484075 0.0 
0.912991 0.027802 0.0 
0.524739 0.153651 0.0 
1.03894 -0.00727149 0.0 
0.921708 -0.0164409 0.0 
0.978048 -0.0010667 0.0 
0.902685 0.0766464 0.0 
0.841857 0.00675429 0.0 
1.08193 -0.0678367 0.0 
0.955139 0.0079241 0.0 
0.975582 0.00903686 0.0 
1.08381 0.268593 0.0 
0.172841 -0.00730833 0.0 
0.930348 0.30065 0.0 
0.973065 0.00256122 0.0 
0.989145 0.0540525 0.0 
1.06872 -0.229555 0.0 
0.969045 0.00461039 0.0 
0.961792 0.0125052 0.0 
0.997739 0.0131578 0.0 
1.03805 -0.00852058 0.0 
0.793412 0.109169 0.0 
0.904541 0.018415 0.0 
0.990952 0.00533753 0.0 
1.02824 -0.183009 0.0 
0.995218 0.0153323 0.0 
0.935575 0.0241203 0.0 
0.808002 0.16855 0.0 
0.950102 -0.00857856 0.0 
0.998134 0.0100551 0.0 
0.938834 0.00467216 0.0 
0.18809 0.128468 0.0 
0.943943 -0.00848409 0.0 
1.06552 -0.00998837 0.0 
0.953682 0.289168 0.0 
0.0541501 0.00243905 0.0 
1.10097 0.255995 0.0 
0.988034 0.0148078 0.0 
0.861956 -0.106797 0.0 
0.968938 0.00177164 0.0 
0.959706 0.00908994 0.0 
0.959957 0.00448023 0.0 
0.542438 0.134762 0.0 
0.961996 0.00179336 0.0 
0.956101 -0.0136704 0.0 
0.650022 0.18432 0.0 
1.03474 -0.0123339 0.0 
1.0354 0.0451421 0.0 
0.995818 0.266543 0.0 
0.981118 0.0207468 0.0 
0.975581 0.0289603 0.0 
0.964758 0.00387197 0.0 
0.893535 0.0129342 0.0 
0.959052 -0.017974 0.0 
0.109865 0.00111807 0.0 
0.9688 -0.000296844 0.0 
1.06083 0.0167187 0.0 
0.876207 0.168282 0.0 
0.996507 0.0119606 0.0 
1.0667 0.0275751 0.0 
1.05825 0.0957032 0.0 
1.10228 -0.071589 0.0 
1.09722 0.105948 0.0 
0.97661 -0.00303493 0.0 
0.876844 0.183254 0.0 
0.99667 0.0143564 0.0 
0.996975 0.0110417 0.0 
0.889829 -0.0412445 0.0 
0.978807 0.0257192 0.0 
1.16379 -0.227347 0.0 
0.642917 0.016789 0.0 
0.942131 0.0415906 0.0 
1.01708 0.303204 0.0 
0.907465 0.35357 0.0 
0.839123 0.13227 0.0 
1.16066 0.0777084 0.0 
0.153652 0.133978 0.0 
1.01757 0.290211 0.0 
1.06562 0.266629 0.0 
1.03973 -0.00565924 0.0 
0.938952 0.0943742 0.0 
0.0443232 0.00593267 0.0 
1.17605 0.149118 0.0 
0.977928 0.031818 0.0 
0.910101 0.122238 0.0 
1.12604 0.220917 0.0 
0.851484 0.124451 0.0 
-0.0437052 -0.0180056 0.0 
0.979016 0.0299435 0.0 
0.925237 0.073719 0.0 
0.742299 0.140817 0.0 
0.979846 0.0266801 0.0 
0.911863 0.150365 0.0 
0.995912 0.0124342 0.0 
0.903238 0.101615 0.0 
0.979341 0.0278529 0.0 
0.854047 0.0557048 0.0 
0.831109 0.0225244 0.0 
0.904319 0.164443 0.0 
0.998787 0.0112811 0.0 
0.969011 -0.0047745 0.0 
0.980304 0.025019 0.0 
0.999143 0.0174652 0.0 
0.962867 -0.00480626 0.0 
0.961847 -0.00848325 0.0 
0.966316 -0.00426167 0.0 
0.938326 -0.0415708 0.0 
0.92601 0.0581769 0.0 
0.926617 0.0882238 0.0 
1.04195 -0.00109331 0.0 
0.989887 0.0319232 0.0 
1.06547 0.0286959 0.0 
0.99924 0.0143735 0.0 
1.07893 -0.00708797 0.0 
1.00572 0.0800267 0.0 
0.949833 0.0132467 0.0 
0.977063 0.0270308 0.0 
1.04986 -0.161359 0.0 
1.10058 0.24401 0.0 
1.12433 0.232318 0.0 
0.933412 -0.0322886 0.0 
0.999132 0.0139044 0.0 
0.951326 0.0108964 0.0 
0.996414 0.0135104 0.0 
0.979622 0.00530643 0.0 
1.05615 0.00991435 0.0 
1.04869 -0.172056 0.0 