<VTKFile type="UnstructuredGrid" version="0.1" byte_order="LittleEndian">
  <UnstructuredGrid>
    <Piece NumberOfPoints="9712" NumberOfCells="19403">
      <Points>
        <DataArray type = "Float64" NumberOfComponents="3" format="ascii">
-5 -7 0.0 
15.5 -7 0.0 
15.5 7 0.0 
-5 7 0.0 
-1.6546 1.77742 0.0 
-2.13867 1.86504 0.0 
-1.83467 1.79143 0.0 
1.47969 -2.21179 0.0 
1.36003 -2.38618 0.0 
1.4346 -2.45048 0.0 
-2.04214 1.94165 0.0 
-0.20425 1.17338 0.0 
-2.07648 1.81911 0.0 
-2.00827 1.89081 0.0 
-2.05492 1.98872 0.0 
0.192693 0.536219 0.0 
0.154285 1.75648 0.0 
1.1379 -1.62057 0.0 
-2.11226 1.96977 0.0 
-1.74119 1.75327 0.0 
1.14499 -1.58184 0.0 
-1.94373 2.37229 0.0 
1.50619 -0.664239 0.0 
1.99658 -1.76705 0.0 
1.7229 -1.18344 0.0 
-1.97759 2.52091 0.0 
-0.768046 0.387136 0.0 
1.32657 -1.43969 0.0 
1.90142 0.24821 0.0 
-0.93264 1.51038 0.0 
1.09557 0.967223 0.0 
0.627111 0.757352 0.0 
-2.05707 2.31394 0.0 
1.34027 -2.45136 0.0 
-0.725097 0.397516 0.0 
-0.666094 2.30428 0.0 
-0.73829 -0.279965 0.0 
1.73336 -1.08822 0.0 
1.88466 -1.24421 0.0 
1.50539 -1.23752 0.0 
1.65978 -1.30759 0.0 
-0.0409718 0.542603 0.0 
1.6005 -1.1227 0.0 
1.78439 -0.941488 0.0 
1.86015 -1.54236 0.0 
1.49308 -1.40058 0.0 
2.34892 -1.47149 0.0 
2.13832 -1.3246 0.0 
1.73061 0.751302 0.0 
-0.580328 0.526903 0.0 
1.51013 -2.1595 0.0 
-1.65424 3.45779 0.0 
-1.51397 2.46352 0.0 
1.42773 -2.17867 0.0 
0.304353 0.497878 0.0 
2.24628 0.228293 0.0 
1.51258 -2.27933 0.0 
-1.60346 3.44299 0.0 
-1.71408 2.36227 0.0 
2.17421 0.530405 0.0 
2.42 0.316451 0.0 
-1.63642 3.31911 0.0 
2.53942 -0.995036 0.0 
0.750003 0.810439 0.0 
2.04736 0.40918 0.0 
1.19615 -1.50641 0.0 
2.13474 0.494063 0.0 
0.547924 0.306722 0.0 
-0.2059 0.361394 0.0 
2.2127 0.547693 0.0 
1.41442 -0.597105 0.0 
1.52233 -1.46252 0.0 
-1.84114 2.53924 0.0 
-5 -2.53894 0.0 
2.32127 0.371156 0.0 
-1.69186 3.33379 0.0 
-0.964779 0.566136 0.0 
-1.81311 2.48387 0.0 
-1.78557 3.38304 0.0 
1.48278 0.914136 0.0 
2.51531 -1.89689 0.0 
1.20982 -0.330514 0.0 
0.408434 0.319657 0.0 
0.95023 0.60993 0.0 
-0.752349 0.440796 0.0 
-0.998248 0.564019 0.0 
-1.73165 3.36299 0.0 
1.24353 -1.49063 0.0 
0.942095 0.817189 0.0 
-1.77816 2.47096 0.0 
2.48183 -1.95479 0.0 
1.33574 -1.77854 0.0 
0.823335 1.12085 0.0 
-0.36308 0.598468 0.0 
0.745466 0.783414 0.0 
-1.88344 2.8521 0.0 
-1.79794 3.52221 0.0 
3.0087 0.272815 0.0 
-1.81486 2.66014 0.0 
0.375911 -0.403668 0.0 
-0.68323 0.487288 0.0 
-0.34187 -0.274923 0.0 
-0.293875 -0.201368 0.0 
1.61018 -1.767 0.0 
-0.448275 -0.347267 0.0 
-1.08687 0.352015 0.0 
1.29257 -1.76345 0.0 
1.67658 -1.49551 0.0 
1.19193 0.533009 0.0 
1.21582 -1.91654 0.0 
-0.36438 -0.346225 0.0 
-0.92534 0.330346 0.0 
2.3836 0.287756 0.0 
1.68841 0.639887 0.0 
1.59001 -1.89458 0.0 
1.14818 -1.92143 0.0 
1.28996 -2.19426 0.0 
1.37603 -1.8763 0.0 
1.23834 -2.09141 0.0 
1.11702 -2.06287 0.0 
0.691829 0.463808 0.0 
1.46523 -2.03459 0.0 
-0.123547 0.424486 0.0 
-1.3311 2.12174 0.0 
1.08169 -1.90074 0.0 
1.87975 -2.15971 0.0 
1.10131 -1.78593 0.0 
1.13722 0.534683 0.0 
1.42465 -1.59031 0.0 
-1.45435 2.47344 0.0 
1.41998 -1.98207 0.0 
0.463917 1.8787 0.0 
-1.72896 2.89571 0.0 
1.12419 -1.84975 0.0 
1.59054 -1.20634 0.0 
0.46124 0.621002 0.0 
0.806438 -1.00204 0.0 
2.1804 0.349761 0.0 
2.21142 -1.6418 0.0 
1.10152 -0.274558 0.0 
2.23388 0.387302 0.0 
0.137769 0.567007 0.0 
1.88736 0.267391 0.0 
1.26821 -1.94267 0.0 
0.21033 -0.605707 0.0 
2.61094 -1.50046 0.0 
0.819837 0.743337 0.0 
-1.4303 2.07799 0.0 
1.82013 0.322126 0.0 
-1.47649 2.2099 0.0 
1.15745 -0.274223 0.0 
-1.81198 2.24994 0.0 
2.34337 -1.67775 0.0 
-1.13329 1.37877 0.0 
-0.828215 1.05292 0.0 
2.46752 -1.53452 0.0 
-1.69915 2.18529 0.0 
-0.404416 -0.286271 0.0 
-1.23501 1.31766 0.0 
2.11757 -1.50659 0.0 
-1.08535 1.28274 0.0 
2.58548 -1.70783 0.0 
0.24729 -0.572345 0.0 
-1.66963 2.25319 0.0 
1.58322 -1.62308 0.0 
-0.367923 -0.306026 0.0 
0.391521 1.44485 0.0 
1.88977 -2.46319 0.0 
1.5943 -1.53613 0.0 
-0.357143 -0.23651 0.0 
0.82621 0.80563 0.0 
-1.59261 2.31884 0.0 
-0.47244 -0.307516 0.0 
-0.40334 -0.326688 0.0 
-2.00063 2.11543 0.0 
1.55514 -1.95078 0.0 
-1.40431 2.26352 0.0 
-0.0265928 0.573714 0.0 
1.17093 1.10579 0.0 
-1.77907 2.22111 0.0 
0.682788 0.329642 0.0 
-0.54475 2.15572 0.0 
-0.288592 0.289433 0.0 
-1.43199 2.16349 0.0 
-1.45029 2.25134 0.0 
1.5535 -1.79992 0.0 
-1.06406 1.08381 0.0 
1.72954 1.44966 0.0 
0.582806 0.515814 0.0 
0.582876 -0.679913 0.0 
1.32351 -0.355916 0.0 
-0.47505 0.577092 0.0 
-0.371167 0.227715 0.0 
1.52235 -1.8529 0.0 
-0.429822 -0.244811 0.0 
-0.53237 -0.24648 0.0 
-0.393983 -0.210364 0.0 
0.652895 0.317361 0.0 
1.55812 -1.70765 0.0 
1.63021 0.325622 0.0 
0.442731 0.358729 0.0 
1.22925 -1.85192 0.0 
1.43517 -1.79082 0.0 
1.39317 -1.6984 0.0 
1.62965 0.295952 0.0 
0.905462 0.793465 0.0 
1.04036 -1.64811 0.0 
2.1131 -1.72466 0.0 
-0.743911 0.369492 0.0 
1.14427 -1.99314 0.0 
1.26033 -2.0209 0.0 
-1.70955 2.07308 0.0 
0.910023 -1.62976 0.0 
-0.313059 -0.0954838 0.0 
-1.77334 2.3988 0.0 
-0.311958 -0.24042 0.0 
2.53315 0.325608 0.0 
-0.273728 -0.226719 0.0 
-0.646401 0.379627 0.0 
1.52426 0.616074 0.0 
2.21703 -1.79499 0.0 
2.71108 0.312216 0.0 
0.759924 1.093 0.0 
-1.69271 2.12368 0.0 
0.255794 0.540969 0.0 
0.0534699 0.562158 0.0 
-1.5679 2.22408 0.0 
-1.66906 2.45165 0.0 
-1.51895 2.09449 0.0 
2.16948 0.408238 0.0 
-0.818806 0.680638 0.0 
-0.826868 0.642087 0.0 
0.519855 0.276992 0.0 
-0.716682 1.18602 0.0 
-0.649974 -0.148775 0.0 
0.457368 0.256619 0.0 
0.517407 0.248194 0.0 
0.327129 0.39802 0.0 
0.533249 -0.878832 0.0 
-0.870735 0.634904 0.0 
1.19219 1.07557 0.0 
2.35922 0.366028 0.0 
-1.66911 3.66723 0.0 
-0.857603 1.54934 0.0 
-0.379189 2.30131 0.0 
-0.941007 1.36523 0.0 
-1.58662 2.49682 0.0 
-0.545297 0.352587 0.0 
0.327944 -0.744683 0.0 
-0.312756 0.524741 0.0 
-0.107843 0.506233 0.0 
2.13378 -2.36584 0.0 
1.52689 0.686953 0.0 
-0.119983 0.327909 0.0 
1.02161 -1.53072 0.0 
1.51507 0.39695 0.0 
-0.674484 1.02605 0.0 
-0.564724 -0.148435 0.0 
0.409388 0.290913 0.0 
0.252349 0.30842 0.0 
-1.09282 1.45998 0.0 
1.45674 -1.54484 0.0 
-0.266777 0.782169 0.0 
0.91327 -0.874389 0.0 
1.01208 1.13309 0.0 
-0.897136 1.35063 0.0 
-0.846484 0.489353 0.0 
1.47563 0.663768 0.0 
-1.22282 2.05021 0.0 
0.348906 0.416714 0.0 
1.41913 0.964648 0.0 
0.933289 -0.839038 0.0 
-1.85066 1.40221 0.0 
0.142477 1.99435 0.0 
-0.717809 0.341194 0.0 
-2.21177 1.41584 0.0 
0.396571 0.350929 0.0 
1.25171 -1.60721 0.0 
0.736798 0.393502 0.0 
-0.661427 0.19031 0.0 
2.18751 -2.32769 0.0 
-1.00908 1.6747 0.0 
2.21416 -2.07269 0.0 
-0.779194 0.642011 0.0 
-1.02312 1.3939 0.0 
2.08809 -2.24876 0.0 
-5 -4.48794 0.0 
1.61792 -1.46215 0.0 
-0.974627 1.38947 0.0 
1.81166 -2.48446 0.0 
-1.03635 1.47474 0.0 
0.869004 -1.74424 0.0 
0.956579 -1.78598 0.0 
1.07495 0.540689 0.0 
-1.08005 1.37763 0.0 
0.914755 -0.803058 0.0 
0.611759 -0.305322 0.0 
1.70043 -1.41356 0.0 
0.75708 -0.631542 0.0 
1.21215 1.01979 0.0 
-0.586902 0.440014 0.0 
1.9251 -2.56336 0.0 
-1.58261 1.91091 0.0 
-0.746541 1.26087 0.0 
-1.49915 1.13657 0.0 
-1.46675 0.971536 0.0 
-1.05881 0.930935 0.0 
0.71826 0.415078 0.0 
-0.701697 0.526982 0.0 
-1.56194 2.05157 0.0 
1.15988 0.991244 0.0 
1.38676 0.949615 0.0 
-1.61697 2.02689 0.0 
1.13748 -0.357331 0.0 
-1.8456 2.04561 0.0 
0.253686 -0.756334 0.0 
-1.53603 1.86509 0.0 
-1.43465 0.924137 0.0 
-1.00273 1.27416 0.0 
-1.03063 1.5132 0.0 
-1.32483 1.94769 0.0 
-0.965552 1.61445 0.0 
-0.239859 -0.245939 0.0 
-5 3.01776 0.0 
-5 -0.248741 0.0 
0.517491 1.87079 0.0 
-1.18776 1.8875 0.0 
2.27458 0.36201 0.0 
1.9794 0.331487 0.0 
0.503086 0.510306 0.0 
1.26387 -0.370702 0.0 
1.24483 0.550197 0.0 
1.12871 0.979556 0.0 
-1.48659 1.83259 0.0 
1.0672 0.958366 0.0 
-1.16856 1.61214 0.0 
-0.218637 -0.230696 0.0 
-5 1.81431 0.0 
1.37014 1.04658 0.0 
0.0950623 0.557621 0.0 
-1.23613 1.67303 0.0 
0.953731 -0.709843 0.0 
2.07568 -1.85385 0.0 
2.10836 -1.82014 0.0 
-0.994952 1.33552 0.0 
-1.86986 1.52312 0.0 
0.515812 0.447542 0.0 
0.842446 0.992035 0.0 
-1.42353 1.8223 0.0 
2.091 0.354014 0.0 
-0.937663 0.401428 0.0 
-1.69305 1.41997 0.0 
-1.82465 1.55127 0.0 
2.15192 0.384657 0.0 
-1.17972 1.37998 0.0 
-0.718866 -0.0130647 0.0 
-0.927867 0.290435 0.0 
1.56509 0.300406 0.0 
-5 -3.04052 0.0 
9.98027 -7 0.0 
0.176009 0.694641 0.0 
0.597997 -0.559941 0.0 
-0.546583 0.4849 0.0 
0.602022 -0.657834 0.0 
2.17737 0.379672 0.0 
1.89809 0.287017 0.0 
-1.58883 1.35796 0.0 
-1.2284 1.37063 0.0 
-1.43937 1.35342 0.0 
-1.59664 1.47263 0.0 
0.577431 -0.368705 0.0 
1.5263 -1.51093 0.0 
0.479666 0.796509 0.0 
0.894995 1.01463 0.0 
2.22312 0.363016 0.0 
-0.320562 0.726481 0.0 
-1.30188 2.41386 0.0 
0.43802 0.434693 0.0 
-0.761697 0.762024 0.0 
1.45688 -1.49591 0.0 
-0.65072 0.676835 0.0 
1.6097 -1.41509 0.0 
2.25768 0.399237 0.0 
1.85518 0.299709 0.0 
2.14618 0.290757 0.0 
2.25222 0.371677 0.0 
-1.93063 2.91367 0.0 
1.52717 0.319618 0.0 
1.67964 -1.62237 0.0 
1.35962 -0.439169 0.0 
1.63007 -1.54335 0.0 
-5 -0.764504 0.0 
-1.61377 2.62271 0.0 
1.73865 -1.57725 0.0 
-0.908306 1.23669 0.0 
1.60766 0.330292 0.0 
1.82509 -1.63054 0.0 
1.90521 0.312457 0.0 
1.98719 -1.6488 0.0 
-0.528791 0.39225 0.0 
1.94978 -2.39003 0.0 
-0.472559 0.718465 0.0 
-1.28058 2.26572 0.0 
0.881581 -0.556282 0.0 
2.26369 0.42542 0.0 
0.917309 -1.69962 0.0 
0.853954 -1.60945 0.0 
1.30086 -0.404316 0.0 
1.99565 -2.46852 0.0 
1.49445 -1.47573 0.0 
1.68285 0.863315 0.0 
2.03074 -2.37549 0.0 
2.52279 -0.506167 0.0 
2.56049 -1.76899 0.0 
-1.52889 2.56597 0.0 
2.81136 -0.570221 0.0 
1.3688 -1.46095 0.0 
1.29524 -0.373946 0.0 
-0.350504 0.671928 0.0 
-0.590282 0.564035 0.0 
-0.054366 2.16706 0.0 
1.50819 1.22548 0.0 
-0.548222 0.453941 0.0 
2.19936 -2.5207 0.0 
12.2704 -7 0.0 
1.6811 -1.36761 0.0 
-0.449261 0.559535 0.0 
0.537017 -0.527614 0.0 
-0.00733391 0.553304 0.0 
0.494109 -0.356396 0.0 
-0.7939 0.0827441 0.0 
0.39888 0.467333 0.0 
-1.04288 1.34095 0.0 
0.605019 1.02824 0.0 
0.847559 0.374727 0.0 
1.00336 0.618307 0.0 
2.1955 0.399186 0.0 
0.656973 0.401158 0.0 
-0.998431 2.73564 0.0 
[...]
<PointData>
  <DataArray type = "Float64" Name="VitesseP1" NumberOfComponents="3" format="ascii">
1 0 0.0 
1.09415 0 0.0 
1.0365 0 0.0 
1 0 0.0 
0.994651 0.0156178 0.0 
0.996934 0.0109747 0.0 
0.995524 0.0134372 0.0 
1.04283 -0.00364186 0.0 
1.0449 -0.00459131 0.0 
1.05047 -0.00415451 0.0 
0.997774 0.0118953 0.0 
0.986711 0.0725518 0.0 
0.996628 0.011304 0.0 
0.996841 0.0120861 0.0 
0.998923 0.0118969 0.0 
0.992147 0.218315 0.0 
1.02014 0.053284 0.0 
1.04968 -0.0261651 0.0 
0.998847 0.0113224 0.0 
0.995059 0.0143592 0.0 
1.05512 -0.0271388 0.0 
0.998881 0.0132036 0.0 
1.16039 -0.0265815 0.0 
1.04692 0.0120772 0.0 
1.06435 -0.0023281 0.0 
0.99885 0.0127839 0.0 
0.944534 0.00861593 0.0 
1.06368 -0.0222291 0.0 
0.0642921 0.00138636 0.0 
0.988865 0.0311949 0.0 
1.14367 0.0689282 0.0 
1.11009 0.142847 0.0 
0.998868 0.0122194 0.0 
1.03466 -0.0177589 0.0 
0.941375 0.0122075 0.0 
1.00549 0.0300681 0.0 
0.936855 -0.0514907 0.0 
1.08547 -0.00220986 0.0 
1.05717 0.00844208 0.0 
1.05453 -0.0159257 0.0 
1.0574 -0.00534151 0.0 
0.92683 0.151668 0.0 
1.07578 -0.0115098 0.0 
1.1272 0.00104961 0.0 
1.06909 0.00685708 0.0 
1.06415 -0.0140255 0.0 
1.06437 0.0344774 0.0 
1.05822 0.0241709 0.0 
1.20271 0.0318091 0.0 
0.939536 0.0355629 0.0 
1.0415 -0.00364496 0.0 
1.00248 0.0121007 0.0 
0.999847 0.0173192 0.0 
1.04093 -0.00523026 0.0 
1.03751 0.243431 0.0 
0.0395629 -0.000629519 0.0 
1.04466 -0.00258783 0.0 
1.0027 0.0124927 0.0 
0.999115 0.0154416 0.0 
1.15793 0.00360865 0.0 
0.100812 0.000325843 0.0 
1.00239 0.0127656 0.0 
1.09785 0.0607082 0.0 
1.12316 0.121507 0.0 
0.526624 0.00650589 0.0 
1.06132 -0.0270835 0.0 
1.05499 0.00538556 0.0 
0.55466 0.134593 0.0 
0.862692 0.0854274 0.0 
1.18327 -0.0010947 0.0 
1.20311 -0.0383627 0.0 
1.06766 -0.0116123 0.0 
0.999067 0.0139111 0.0 
1 0 0.0 
0.277781 -0.00497347 0.0 
1.00216 0.0123536 0.0 
0.968129 0.0104971 0.0 
0.999089 0.0142662 0.0 
1.00177 0.011554 0.0 
1.17582 0.037601 0.0 
1.03817 0.0239089 0.0 
0.750519 -0.0406755 0.0 
0.947779 0.263187 0.0 
1.17343 0.116454 0.0 
0.946171 0.0141541 0.0 
0.969942 0.00879313 0.0 
1.00206 0.0119758 0.0 
1.0627 -0.0252957 0.0 
1.1441 0.0985347 0.0 
0.999154 0.0146122 0.0 
1.04468 0.0283563 0.0 
1.04249 -0.0145168 0.0 
1.09767 0.0799989 0.0 
0.935495 0.0700176 0.0 
1.12544 0.125665 0.0 
0.999902 0.0126995 0.0 
1.00216 0.0107877 0.0 
-0.0168199 -0.146768 0.0 
0.999261 0.0138384 0.0 
1.19101 -0.234694 0.0 
0.944064 0.0229303 0.0 
0.918714 -0.0885287 0.0 
0.915493 -0.0746327 0.0 
1.04698 -0.00397125 0.0 
0.924339 -0.0784379 0.0 
0.967185 -0.00824502 0.0 
1.04215 -0.0164872 0.0 
1.0695 -0.0029885 0.0 
1.19607 0.0851892 0.0 
1.03789 -0.0159948 0.0 
0.920039 -0.0887895 0.0 
0.954865 -0.00374219 0.0 
0.0613684 0.00935729 0.0 
1.2047 0.0389316 0.0 
1.04406 -0.00375687 0.0 
1.03631 -0.0178483 0.0 
1.03851 -0.00786407 0.0 
1.04176 -0.0113872 0.0 
1.03568 -0.0117499 0.0 
1.03267 -0.0168112 0.0 
1.16321 0.184941 0.0 
1.03937 -0.00621616 0.0 
0.87722 0.12601 0.0 
0.999117 0.0208008 0.0 
1.03515 -0.0204238 0.0 
1.0416 0.00532195 0.0 
1.03726 -0.0228282 0.0 
1.19571 0.0925444 0.0 
1.0614 -0.0145489 0.0 
1.0001 0.0179393 0.0 
1.03931 -0.00832843 0.0 
1.03014 0.0466592 0.0 
1.00075 0.0137247 0.0 
1.03695 -0.0204577 0.0 
1.05924 -0.0108842 0.0 
1.08746 0.189587 0.0 
1.06854 -0.0734988 0.0 
0.1281 0.00835769 0.0 
1.05485 0.0231474 0.0 
0.455481 -0.0391872 0.0 
0.369615 -0.00206351 0.0 
0.977586 0.196698 0.0 
0.0689297 -0.00562993 0.0 
1.03798 -0.0137993 0.0 
1.0306 -0.160771 0.0 
1.05219 0.0501665 0.0 
1.13967 0.121625 0.0 
0.998818 0.0194201 0.0 
0.0775219 0.00575591 0.0 
0.998989 0.0184941 0.0 
0.408801 -0.0171061 0.0 
0.998795 0.0145411 0.0 
1.0465 0.0279481 0.0 
0.985257 0.024451 0.0 
0.973515 0.0342866 0.0 
1.0573 0.039046 0.0 
0.998627 0.0157851 0.0 
0.922721 -0.0796711 0.0 
0.984255 0.0208736 0.0 
1.06818 0.0207935 0.0 
0.981692 0.0253146 0.0 
1.03372 0.0348912 0.0 
1.0399 -0.171267 0.0 
0.998914 0.0160717 0.0 
1.05915 -0.00655555 0.0 
0.920133 -0.0860488 0.0 
1.03484 0.0695791 0.0 
1.04809 -0.0016844 0.0 
1.06808 -0.00696244 0.0 
0.916371 -0.081844 0.0 
1.13317 0.113447 0.0 
0.99923 0.0168467 0.0 
0.92762 -0.0728706 0.0 
0.922175 -0.082749 0.0 
0.998648 0.0126174 0.0 
1.04177 -0.00450329 0.0 
0.999487 0.0193139 0.0 
0.93891 0.15163 0.0 
1.13216 0.0501146 0.0 
0.998737 0.0148975 0.0 
0.630882 0.110692 0.0 
1.00616 0.0341479 0.0 
0.86327 0.0453613 0.0 
0.998948 0.01921 0.0 
0.999292 0.0187369 0.0 
1.04522 -0.00593048 0.0 
0.974046 0.0238207 0.0 
1.07419 -0.0425057 0.0 
1.14119 0.20038 0.0 
1.10871 -0.129224 0.0 
0.868509 -0.0309269 0.0 
0.938205 0.0518298 0.0 
0.874958 0.0163031 0.0 
1.04416 -0.00656824 0.0 
0.923978 -0.0732293 0.0 
0.933116 -0.0627134 0.0 
0.918695 -0.0743712 0.0 
0.578785 0.110914 0.0 
1.05028 -0.00675686 0.0 
0.111398 0.0171771 0.0 
1.03637 0.2653 0.0 
1.03934 -0.0169138 0.0 
1.04397 -0.0106025 0.0 
1.04873 -0.013925 0.0 
0.0917982 0.0251021 0.0 
1.14321 0.105186 0.0 
1.0437 -0.0290776 0.0 
1.04795 0.017378 0.0 
0.941424 0.00845279 0.0 
1.03388 -0.0167263 0.0 
1.03597 -0.0124547 0.0 
0.998757 0.0156713 0.0 
1.04083 -0.0343754 0.0 
0.898452 -0.0656202 0.0 
0.999081 0.014782 0.0 
0.909599 -0.0858648 0.0 
0.164707 -0.0139577 0.0 
0.887716 -0.0840543 0.0 
0.93261 0.0159787 0.0 
1.20219 0.0497585 0.0 
1.04386 0.0208055 0.0 
0.240804 -0.0322382 0.0 
1.09697 0.0875867 0.0 
0.998577 0.0158711 0.0 
1.01884 0.223301 0.0 
0.951445 0.177402 0.0 
0.998918 0.0173081 0.0 
0.999363 0.0157164 0.0 
0.998781 0.0181295 0.0 
0.51718 0.000251029 0.0 
0.967698 0.0249807 0.0 
0.965397 0.0224874 0.0 
0.412892 0.135778 0.0 
0.976618 0.040728 0.0 
0.940111 -0.0445528 0.0 
0.300298 0.101384 0.0 
0.374329 0.184489 0.0 
1.06276 0.297107 0.0 
1.06893 -0.103061 0.0 
0.967158 0.0194032 0.0 
1.13978 0.0505139 0.0 
0.264559 -0.0044879 0.0 
1.00072 0.0113791 0.0 
0.99048 0.0335088 0.0 
1.00966 0.0345355 0.0 
0.983885 0.0309005 0.0 
0.999674 0.016439 0.0 
0.918719 0.0212428 0.0 
1.05851 -0.131671 0.0 
0.918953 0.0756233 0.0 
0.90865 0.132002 0.0 
1.04756 0.0140386 0.0 
1.19395 0.0466298 0.0 
0.829778 0.116701 0.0 
1.05574 -0.0339027 0.0 
0.544594 0.0227725 0.0 
0.975834 0.0433785 0.0 
0.93249 -0.05044 0.0 
0.700565 0.194649 0.0 
0.898626 0.339074 0.0 
0.987365 0.0261001 0.0 
1.06581 -0.0136595 0.0 
0.967313 0.0862255 0.0 
1.11293 -0.0769307 0.0 
1.11244 0.0630014 0.0 
0.983269 0.0325514 0.0 
0.956283 0.0119663 0.0 
1.19427 0.0515718 0.0 
0.999219 0.0228039 0.0 
1.07707 0.284195 0.0 
1.16869 0.038845 0.0 
1.12338 -0.0779623 0.0 
0.994113 0.0100056 0.0 
1.01854 0.0448426 0.0 
0.937434 0.0073432 0.0 
0.997244 0.00834381 0.0 
1.01757 0.284565 0.0 
1.05501 -0.0217848 0.0 
0.997775 0.15187 0.0 
0.925097 -0.00673415 0.0 
1.03726 0.0330206 0.0 
0.992906 0.0285381 0.0 
1.03753 0.0175292 0.0 
0.962812 0.0256784 0.0 
0.985102 0.0281025 0.0 
1.03755 0.00834584 0.0 
1 0 0.0 
1.0688 -0.00640556 0.0 
0.98483 0.0297487 0.0 
1.04614 -0.000945829 0.0 
0.987663 0.0278792 0.0 
1.03116 -0.0314654 0.0 
1.03341 -0.0275768 0.0 
1.19305 0.101533 0.0 
0.984891 0.026136 0.0 
1.12902 -0.0825745 0.0 
0.912627 -0.1468 0.0 
1.06723 -0.00222708 0.0 
1.12741 -0.115081 0.0 
1.14842 0.0531352 0.0 
0.931333 0.0272344 0.0 
1.0368 0.00143535 0.0 
0.995992 0.0170606 0.0 
0.979871 0.0390771 0.0 
0.984116 0.0110201 0.0 
0.995514 0.0102746 0.0 
0.990086 0.0211535 0.0 
1.08812 0.168921 0.0 
0.948601 0.0244728 0.0 
0.998751 0.0175097 0.0 
1.14689 0.0605506 0.0 
1.16721 0.0425334 0.0 
0.998495 0.0167611 0.0 
0.929435 -0.0574711 0.0 
0.999109 0.0140698 0.0 
1.04266 -0.128428 0.0 
0.995093 0.0176539 0.0 
1.00022 0.0109243 0.0 
0.980834 0.0281995 0.0 
0.988914 0.0281156 0.0 
0.996642 0.0212152 0.0 
0.991988 0.0299316 0.0 
0.882069 -0.105852 0.0 
1 0 0.0 
1 0 0.0 
1.03209 0.0460202 0.0 
0.995329 0.0238539 0.0 
0.211905 0.000165053 0.0 
0.0561849 0.0127349 0.0 
1.11675 0.217531 0.0 
0.957792 -0.045708 0.0 
1.20068 0.0790298 0.0 
1.14537 0.0645999 0.0 
0.994527 0.0183602 0.0 
1.14206 0.0725502 0.0 
0.991891 0.0244205 0.0 
0.948169 -0.16421 0.0 
1 0 0.0 
1.1591 0.03604 0.0 
0.961737 0.19003 0.0 
0.992831 0.0229295 0.0 
1.14349 -0.0855765 0.0 
1.04402 0.0145225 0.0 
1.04434 0.0162241 0.0 
0.982955 0.0288537 0.0 
0.99538 0.0112412 0.0 
1.12794 0.232752 0.0 
1.11904 0.0915782 0.0 
0.994281 0.0194079 0.0 
0.141361 0.00563494 0.0 
0.958526 0.00105231 0.0 
0.992149 0.0120374 0.0 
0.995309 0.0119487 0.0 
0.337453 0.00302505 0.0 
0.985602 0.0230651 0.0 
0.948466 -0.0294563 0.0 
0.953664 -0.00695749 0.0 
0.0960973 -0.0107564 0.0 
1 0 0.0 
1.07194 0 0.0 
1.00794 0.166279 0.0 
1.11969 -0.14644 0.0 
0.932086 0.0357243 0.0 
1.1126 -0.130527 0.0 
0.304796 0.00260472 0.0 
0.0797853 -0.00275686 0.0 
0.9897 0.012766 0.0 
0.985734 0.0215851 0.0 
0.987508 0.0158946 0.0 
0.991715 0.0141851 0.0 
1.10772 -0.173711 0.0 
1.06779 -0.0106972 0.0 
1.08001 0.147441 0.0 
1.12208 0.0845505 0.0 
0.20832 0.00360674 0.0 
0.95683 0.0790817 0.0 
1.00061 0.0200062 0.0 
1.11092 0.257541 0.0 
0.972351 0.0323974 0.0 
1.06697 -0.0145886 0.0 
0.959391 0.0377352 0.0 
1.06668 -0.00740633 0.0 
0.459512 -0.00557567 0.0 
0.0797454 0.00920771 0.0 
0.0672155 0.0121094 0.0 
0.268533 0.00108709 0.0 
0.999826 0.0121404 0.0 
0.0825997 0.00116882 0.0 
1.05989 -0.00204903 0.0 
1.15893 -0.043247 0.0 
1.06808 -0.00509458 0.0 
1 0 0.0 
0.999797 0.015744 0.0 
1.06607 0.000698996 0.0 
0.979224 0.0317835 0.0 
0.0975806 0.00753747 0.0 
1.05966 0.00494997 0.0 
0.076929 0.000386125 0.0 
1.05694 0.0125461 0.0 
0.92041 0.0279219 0.0 
1.04289 0.000206417 0.0 
0.957469 0.0581653 0.0 
0.999976 0.0210009 0.0 
1.19556 -0.110527 0.0 
0.649981 -0.00829175 0.0 
1.03532 -0.0314704 0.0 
1.0414 -0.0369604 0.0 
1.06739 -0.0450681 0.0 
1.05599 0.0100291 0.0 
1.06753 -0.012934 0.0 
1.19131 0.0242039 0.0 
1.0424 0.0141239 0.0 
1.24734 0.08078 0.0 
1.03544 0.0302589 0.0 
1 0.016784 0.0 
1.18295 0.106356 0.0 
1.06495 -0.0197656 0.0 
0.97064 -0.045834 0.0 
0.947883 0.0740408 0.0 
0.944313 0.0372221 0.0 
1.01436 0.0412424 0.0 
1.13789 -0.000334116 0.0 
0.928986 0.0325748 0.0 
1.00521 -0.00639201 0.0 
1.06944 0 0.0 
1.06364 -0.00360445 0.0 
0.933928 0.0543206 0.0 
1.13938 -0.164003 0.0 
0.935692 0.160603 0.0 
1.10228 -0.195138 0.0 
0.952573 -0.0202059 0.0 
1.08748 0.251372 0.0 
0.983417 0.0271612 0.0 
1.08807 0.105067 0.0 
0.785709 0.101649 0.0 
1.17609 0.107689 0.0 
0.451562 -0.00104972 0.0 
1.07469 0.186935 0.0 
1.0041 0.0210477 0.0 
1.05669 0.0154155 0.0 
1.04309 0.00878976 0.0 
1.04755 -0.00097051 0.0 
1.04614 0.000146961 0.0 
0.0617927 0.0105566 0.0 
1.04211 0.00209805 0.0 
-0.0722266 0.0245397 0.0 
1.04633 -0.0366701 0.0 
1.00423 0.034637 0.0 
1.04469 0.00942809 0.0 
1 0 0.0 
0.983399 0.0259998 0.0 
1.19375 0.0974652 0.0 
0.744323 -0.0347134 0.0 
0.999649 0.0151897 0.0 
0.992007 0.0386725 0.0 
1.05002 0.010198 0.0 
1.0549 0.00526291 0.0 
0.939863 0.189306 0.0 
0.777899 0.130734 0.0 
1.00442 0.0181097 0.0 
1.14111 0.126103 0.0 
0.999746 0.243703 0.0 
0.999157 0.0118469 0.0 
0.986097 0.0289234 0.0 
1.05124 0.00113146 0.0 
0.93796 0.124795 0.0 
0.142535 0.0151021 0.0 
1.05025 0.00329312 0.0 
0.17284 0.0988412 0.0 
1.05042 -0.000978879 0.0 
1.00213 -0.00844497 0.0 
1.01664 0.0464456 0.0 
1.11438 -0.0437702 0.0 
1.04703 0.00225934 0.0 
0.957159 -0.00635025 0.0 
0.332235 0.0136388 0.0 
1.06361 -0.0231326 0.0 
0.946704 -0.00154574 0.0 
0.999857 0.0148827 0.0 
1.06109 -0.0280755 0.0 
0.941913 0.0657311 0.0 
1.19799 -0.0459234 0.0 
0.230779 -0.0103249 0.0 
0.581969 -0.0114778 0.0 
0.941214 -0.0047284 0.0 
0.964438 0.272708 0.0 
0.250383 0.0478795 0.0 
0.996563 0.316256 0.0 
0.919645 -0.00162128 0.0 
1.07915 -0.0434222 0.0 
0.68184 0.00493324 0.0 
0.356291 0.116286 0.0 
1.10362 0.0708121 0.0 
0.99875 0.0119592 0.0 
0.53289 0.00542461 0.0 
0.130429 0.0381964 0.0 
0.914483 -0.0435 0.0 
0.737238 -0.0189205 0.0 
1.0321 0.0466589 0.0 
0.998811 0.0115626 0.0 
1.0262 -0.0982435 0.0 
1.11349 -0.0348156 0.0 
1.1768 0.0264826 0.0 
0.0798322 0.00243128 0.0 
0.936362 -0.0577679 0.0 
1.0348 0.0435747 0.0 
1.06765 -0.00855848 0.0 
0.938185 -0.00912087 0.0 
0.0695906 0.00899443 0.0 
0.998841 0.0124778 0.0 
1.17525 0.0310996 0.0 
1.05944 -0.027295 0.0 
0.963766 0.216429 0.0 
1.05317 0.016359 0.0 
1.06927 -0.000191005 0.0 
1.06941 0.00463407 0.0 
0.954638 0.0375031 0.0 
1.06143 -0.0250653 0.0 
0.998974 0.0136464 0.0 
0.952342 0.00694615 0.0 
1.13731 -0.0338436 0.0 
1.05568 0.0199044 0.0 
0.989419 0.00717357 0.0 
0.953523 0.0152156 0.0 
0.999015 0.0138288 0.0 
1.05895 0.00467266 0.0 
1.04154 -0.00552621 0.0 
1.06123 -0.022295 0.0 
0.990584 0.00880875 0.0 
1.02242 0.047073 0.0 
0.998913 0.0131065 0.0 
1.04486 -0.0268542 0.0 
1.06674 0.0190089 0.0 
0.0595198 0.0198058 0.0 
0.0519274 0.0125461 0.0 
1.06988 0.0149586 0.0 
0.905329 -0.0565424 0.0 
0.887393 -0.0480833 0.0 
0.876995 0.120906 0.0 
0.999468 0.0137592 0.0 
0.998903 0.0137525 0.0 
0.962946 -0.0133162 0.0 
0.965095 -0.0021067 0.0 
1.03475 0.0266827 0.0 
0.96371 0.235306 0.0 
1.06748 0.152697 0.0 
1.03033 -0.0445865 0.0 
0.0659869 0.00160198 0.0 
1.16413 0.0259426 0.0 
1.10276 0.14692 0.0 
0.998756 0.0132808 0.0 
1.0163 0.0366781 0.0 
1.11581 -0.00772369 0.0 
0.982904 0.0208138 0.0 
0.934598 0.0464354 0.0 
1.03048 -0.0294945 0.0 
0.973474 0.0372954 0.0 
0.941313 0.109164 0.0 
0.934269 0.0589867 0.0 
0.785641 -0.0318554 0.0 
0.96298 0.00699018 0.0 
0.787347 -0.0482664 0.0 
1.00109 0.0179244 0.0 
1.03199 0.042577 0.0 
0.953942 -0.0103438 0.0 
0.961679 -0.00115186 0.0 
0.922723 0.0341989 0.0 
1.10041 0.24978 0.0 
0.972429 0.00594432 0.0 
0.941407 0.292175 0.0 
0.945512 0.0327411 0.0 
0.975174 0.226856 0.0 
0.849004 0.286263 0.0 
0.995239 0.0073836 0.0 
1.00078 0 0.0 
0.998852 0.0119581 0.0 
0.97736 0.00140461 0.0 
0.891532 0.154457 0.0 
0.130803 0.00881147 0.0 
1.01095 0.0428643 0.0 
0.980846 0.00700848 0.0 
0.999426 0.012352 0.0 
0.915764 -0.0719688 0.0 
0.916736 0.032996 0.0 
1.19553 -0.0345 0.0 
0.998746 0.0122222 0.0 
0.947912 0.0725049 0.0 
0.732049 -0.0719984 0.0 
1.03336 -0.0235314 0.0 
0.936331 0.0637295 0.0 
0.995356 0.016016 0.0 
0.944545 0.027491 0.0 
0.991161 0.0198528 0.0 
0.0797037 0.0137491 0.0 
0.724163 -0.0623415 0.0 
1.0444 -0.00278423 0.0 
1.15904 0.0824332 0.0 
1.13738 -0.0223534 0.0 
0.997733 0.0105452 0.0 
0.982312 0.0184315 0.0 
1.00264 0.20284 0.0 
1.11446 0.158891 0.0 
0.57985 0.0956984 0.0 
0.951174 0.189509 0.0 
0.981689 0.0188006 0.0 
0.246511 -0.0227302 0.0 
0.982695 0.0217116 0.0 
0.997341 0.0125762 0.0 
1.00041 0.0193763 0.0 
0.192192 -0.0176938 0.0 
0.153015 -0.00790155 0.0 
0.981918 0.0299604 0.0 
0.335628 0.0581196 0.0 
1.19274 0.0933386 0.0 
1.01017 0.0423694 0.0 
0.981088 0.0322245 0.0 
0.999772 0.0192872 0.0 
0.978011 0.0110989 0.0 
0.930421 0.0687979 0.0 
0.976694 0.0256398 0.0 
0.851926 0.285403 0.0 
0.461309 -0.0252585 0.0 
0.176417 -0.00833316 0.0 
0.9683 0.0133996 0.0 
0.974892 0.012012 0.0 
1.05439 0.205472 0.0 
0.25998 -0.0234361 0.0 
0.939985 0.0209448 0.0 
1.03372 -0.0390479 0.0 
0.982963 0.246325 0.0 
0.999317 0.0134018 0.0 
0.922657 0.0819517 0.0 
0.972526 0.0308915 0.0 
0.93023 0.14359 0.0 
0.956457 0.157135 0.0 
1.00876 0.255803 0.0 
0.678344 -0.0218204 0.0 
0.937364 -0.0525039 0.0 
1.11801 0.0594124 0.0 
0.466739 0.0937785 0.0 
0.926453 -0.0598123 0.0 
0.0717042 0.0113241 0.0 
0.899067 -0.0129167 0.0 
0.745754 0.136321 0.0 
0.915111 -0.0665506 0.0 
0.92221 -0.0562877 0.0 
0.612298 0.165298 0.0 
1.04679 0.00730821 0.0 
0.94096 0.173765 0.0 
0.879708 -0.00494397 0.0 
0.928348 -0.0538787 0.0 
1.04107 -0.00536928 0.0 
0.338242 0.0415405 0.0 
1.03767 -0.00867927 0.0 
0.866144 0.00740978 0.0 
0.895672 0.217693 0.0 
1.04947 -0.00135099 0.0 
0.90664 -0.0882197 0.0 
0.919115 0.183456 0.0 
0.238399 -0.0251645 0.0 
1.13171 0.0622031 0.0 
1.03233 0.171272 0.0 
0.830386 0.38099 0.0 
1.1023 0.16603 0.0 
1.0633 0.260653 0.0 
0.923675 -0.0345764 0.0 
0.69316 -0.0860343 0.0 
0.977807 0.0332507 0.0 
0.517224 0.0621002 0.0 
0.918437 -0.0527699 0.0 
1.04785 0.0674823 0.0 
0.135645 0.00380646 0.0 
1.04375 0.264346 0.0 
1.05985 0.0415089 0.0 
0.87909 0.10547 0.0 
1.00514 0.0215564 0.0 
0.892863 0.0670617 0.0 
0.0839868 0.0134574 0.0 
0.853372 0.0765382 0.0 
0.949548 0.0368577 0.0 
0.947442 0.00379919 0.0 
1.1741 -0.03966 0.0 
0.763078 0.335633 0.0 
0.847724 0.0892724 0.0 
1.02934 0.0729384 0.0 
1.08206 -0.0957535 0.0 
0.921087 -0.047 0.0 
1.03915 0.272579 0.0 
0.964831 0.0168022 0.0 
0.995905 0.0400163 0.0 
0.910378 0.0771485 0.0 
0.924695 0.112867 0.0 
0.9108 0.0354529 0.0 
1.0091 0.0270746 0.0 
0.919931 0.106161 0.0 
0.917383 0.221222 0.0 
0.999242 0.0125011 0.0 
1.092 -0.071348 0.0 
0.254597 -0.0284655 0.0 
1.05274 0.252004 0.0 
0.966174 0.203514 0.0 
0.807141 0.15144 0.0 
0.82699 0.0382747 0.0 
0.886398 0.0298767 0.0 
1.04172 0.305803 0.0 
0.999633 0.0171419 0.0 
1.12511 0.14139 0.0 
1.03304 0.227131 0.0 
0.886332 -0.0483808 0.0 
0.923028 -0.00199306 0.0 
0.858405 0.158656 0.0 
0.911072 0.0206546 0.0 
0.885269 0.0148632 0.0 
0.932367 -0.0461985 0.0 
0.934161 0.207653 0.0 
0.995814 0.0300822 0.0 
0.99963 0.0146579 0.0 
0.066843 0.0187313 0.0 
0.0716563 0.0118166 0.0 
0.913029 0.0277789 0.0 
0.52493 0.153654 0.0 
1.03902 -0.00716834 0.0 
0.921737 -0.0164547 0.0 
0.978062 -0.00108451 0.0 
0.90273 0.076617 0.0 
0.841901 0.0067346 0.0 
1.08201 -0.0677404 0.0 
0.955164 0.00790352 0.0 
0.975598 0.00901442 0.0 
1.0839 0.268536 0.0 
0.171979 -0.00946374 0.0 
0.93043 0.300623 0.0 
0.973081 0.00254193 0.0 
0.989183 0.0539974 0.0 
1.06881 -0.229539 0.0 
0.969064 0.00459039 0.0 
0.961814 0.0124824 0.0 
0.997746 0.0131264 0.0 
1.03811 -0.00842599 0.0 
0.793738 0.109102 0.0 
0.904581 0.0183944 0.0 
0.990959 0.00531604 0.0 
1.02835 -0.182988 0.0 
0.995231 0.0152992 0.0 
0.935607 0.0240962 0.0 
0.808274 0.168518 0.0 
0.950129 -0.00859319 0.0 
0.998138 0.0100296 0.0 
0.938865 0.00465336 0.0 
0.188144 0.128454 0.0 
0.943972 -0.00849893 0.0 
1.06556 -0.00990551 0.0 
0.953764 0.289135 0.0 
0.0589905 0.00515981 0.0 
1.10107 0.255932 0.0 
0.988043 0.0147815 0.0 
0.883082 -0.117502 0.0 
0.968957 0.00175288 0.0 
0.959729 0.00906866 0.0 
0.95998 0.00446074 0.0 
0.542596 0.134772 0.0 
0.962018 0.00177487 0.0 
0.956127 -0.013683 0.0 
0.650247 0.184315 0.0 
1.03479 -0.0122387 0.0 
1.03543 0.0450174 0.0 
0.995963 0.266502 0.0 
0.98114 0.020715 0.0 
0.97561 0.0289248 0.0 
0.964779 0.00385252 0.0 
0.893576 0.0129148 0.0 
0.959076 -0.0179847 0.0 
0.110723 0.000693242 0.0 
0.968818 -0.000314682 0.0 
1.0609 0.0167424 0.0 
0.876266 0.168252 0.0 
0.996514 0.0119328 0.0 
1.06679 0.0276104 0.0 
1.05831 0.0956146 0.0 
1.10235 -0.0714867 0.0 
1.09729 0.105861 0.0 
0.976625 -0.00305178 0.0 
0.876905 0.183224 0.0 
0.99668 0.0143237 0.0 
0.996982 0.0110148 0.0 
0.889859 -0.0412573 0.0 
0.978833 0.0256848 0.0 
1.16389 -0.227321 0.0 
0.640772 0.0182133 0.0 
0.942164 0.0415611 0.0 
1.01717 0.303164 0.0 
0.907579 0.353548 0.0 
0.839179 0.132245 0.0 
1.16077 0.0776741 0.0 
0.15368 0.133972 0.0 
1.01769 0.290167 0.0 
1.06575 0.266574 0.0 
1.0398 -0.00556417 0.0 
0.938995 0.0943364 0.0 
0.0458013 0.00687288 0.0 
1.17611 0.149029 0.0 
0.977956 0.03178 0.0 
0.910153 0.122204 0.0 
1.12616 0.22084 0.0 
0.851538 0.124425 0.0 
-0.0433601 -0.0180616 0.0 
0.979043 0.0299062 0.0 
0.925278 0.0736863 0.0 
0.742588 0.140779 0.0 
0.979872 0.0266444 0.0 
0.911919 0.15033 0.0 
0.995922 0.0124052 0.0 
0.903286 0.101583 0.0 
0.979367 0.0278167 0.0 
0.854095 0.0556825 0.0 
0.831155 0.0225046 0.0 
0.904378 0.16441 0.0 
0.998794 0.0112508 0.0 
0.96903 -0.00479034 0.0 
0.980329 0.0249844 0.0 
0.999157 0.0174239 0.0 
0.962889 -0.00482201 0.0 
0.96187 -0.00849741 0.0 
0.966337 -0.00427766 0.0 
0.938353 -0.0415776 0.0 
0.926049 0.0581465 0.0 
0.926661 0.0881891 0.0 
1.04205 -0.0010047 0.0 
0.989911 0.0318788 0.0 
1.06557 0.0287171 0.0 
0.999254 0.0143334 0.0 
1.07894 -0.00700146 0.0 
1.00578 0.0799582 0.0 
0.94986 0.0132246 0.0 
0.97709 0.0269961 0.0 
1.04997 -0.161327 0.0 
1.10071 0.243939 0.0 
1.12442 0.232246 0.0 
0.933434 -0.032299 0.0 
0.999146 0.0138651 0.0 
0.951352 0.010875 0.0 
0.996424 0.0134791 0.0 
0.979635 0.00528549 0.0 
1.05621 0.00995124 0.0 
1.0488 -0.172029 0.0 
0.0648012 0.0039216 0.0 