<VTKFile type="UnstructuredGrid" version="0.1" byte_order="LittleEndian">
  <UnstructuredGrid>
    <Piece NumberOfPoints="9712" NumberOfCells="19403">
      <Points>
        <DataArray type = "Float64" NumberOfComponents="3" format="ascii">
-5 -7 0.0 
15.5 -7 0.0 
15.5 7 0.0 
-5 7 0.0 
-1.6546 1.77742 0.0 
-2.13867 1.86504 0.0 
-1.83467 1.79143 0.0 
1.47969 -2.21179 0.0 
1.36003 -2.38618 0.0 
1.4346 -2.45048 0.0 
-2.04214 1.94165 0.0 
-0.20425 1.17338 0.0 
-2.07648 1.81911 0.0 
-2.00827 1.89081 0.0 
-2.05492 1.98872 0.0 
0.192693 0.536219 0.0 
0.154285 1.75648 0.0 
1.1379 -1.62057 0.0 
-2.11226 1.96977 0.0 
-1.74119 1.75327 0.0 
1.14499 -1.58184 0.0 
-1.94373 2.37229 0.0 
1.50619 -0.664239 0.0 
1.99658 -1.76705 0.0 
1.7229 -1.18344 0.0 
-1.97759 2.52091 0.0 
-0.768046 0.387136 0.0 
1.32657 -1.43969 0.0 
1.90142 0.24821 0.0 
-0.93264 1.51038 0.0 
1.09557 0.967223 0.0 
0.627111 0.757352 0.0 
-2.05707 2.31394 0.0 
1.34027 -2.45136 0.0 
-0.725097 0.397516 0.0 
-0.666094 2.30428 0.0 
-0.73829 -0.279965 0.0 
1.73336 -1.08822 0.0 
1.88466 -1.24421 0.0 
1.50539 -1.23752 0.0 
1.65978 -1.30759 0.0 
-0.0409718 0.542603 0.0 
1.6005 -1.1227 0.0 
1.78439 -0.941488 0.0 
1.86015 -1.54236 0.0 
1.49308 -1.40058 0.0 
2.34892 -1.47149 0.0 
2.13832 -1.3246 0.0 
1.73061 0.751302 0.0 
-0.580328 0.526903 0.0 
1.51013 -2.1595 0.0 
-1.65424 3.45779 0.0 
-1.51397 2.46352 0.0 
1.42773 -2.17867 0.0 
0.304353 0.497878 0.0 
2.24628 0.228293 0.0 
1.51258 -2.27933 0.0 
-1.60346 3.44299 0.0 
-1.71408 2.36227 0.0 
2.17421 0.530405 0.0 
2.42 0.316451 0.0 
-1.63642 3.31911 0.0 
2.53942 -0.995036 0.0 
0.750003 0.810439 0.0 
2.04736 0.40918 0.0 
1.19615 -1.50641 0.0 
2.13474 0.494063 0.0 
0.547924 0.306722 0.0 
-0.2059 0.361394 0.0 
2.2127 0.547693 0.0 
1.41442 -0.597105 0.0 
1.52233 -1.46252 0.0 
-1.84114 2.53924 0.0 
-5 -2.53894 0.0 
2.32127 0.371156 0.0 
-1.69186 3.33379 0.0 
-0.964779 0.566136 0.0 
-1.81311 2.48387 0.0 
-1.78557 3.38304 0.0 
1.48278 0.914136 0.0 
2.51531 -1.89689 0.0 
1.20982 -0.330514 0.0 
0.408434 0.319657 0.0 
0.95023 0.60993 0.0 
-0.752349 0.440796 0.0 
-0.998248 0.564019 0.0 
-1.73165 3.36299 0.0 
1.24353 -1.49063 0.0 
0.942095 0.817189 0.0 
-1.77816 2.47096 0.0 
2.48183 -1.95479 0.0 
1.33574 -1.77854 0.0 
0.823335 1.12085 0.0 
-0.36308 0.598468 0.0 
0.745466 0.783414 0.0 
-1.88344 2.8521 0.0 
-1.79794 3.52221 0.0 
3.0087 0.272815 0.0 
-1.81486 2.66014 0.0 
0.375911 -0.403668 0.0 
-0.68323 0.487288 0.0 
-0.34187 -0.274923 0.0 
-0.293875 -0.201368 0.0 
1.61018 -1.767 0.0 
-0.448275 -0.347267 0.0 
-1.08687 0.352015 0.0 
1.29257 -1.76345 0.0 
1.67658 -1.49551 0.0 
1.19193 0.533009 0.0 
1.21582 -1.91654 0.0 
-0.36438 -0.346225 0.0 
-0.92534 0.330346 0.0 
2.3836 0.287756 0.0 
1.68841 0.639887 0.0 
1.59001 -1.89458 0.0 
1.14818 -1.92143 0.0 
1.28996 -2.19426 0.0 
1.37603 -1.8763 0.0 
1.23834 -2.09141 0.0 
1.11702 -2.06287 0.0 
0.691829 0.463808 0.0 
1.46523 -2.03459 0.0 
-0.123547 0.424486 0.0 
-1.3311 2.12174 0.0 
1.08169 -1.90074 0.0 
1.87975 -2.15971 0.0 
1.10131 -1.78593 0.0 
1.13722 0.534683 0.0 
1.42465 -1.59031 0.0 
-1.45435 2.47344 0.0 
1.41998 -1.98207 0.0 
0.463917 1.8787 0.0 
-1.72896 2.89571 0.0 
1.12419 -1.84975 0.0 
1.59054 -1.20634 0.0 
0.46124 0.621002 0.0 
0.806438 -1.00204 0.0 
2.1804 0.349761 0.0 
2.21142 -1.6418 0.0 
1.10152 -0.274558 0.0 
2.23388 0.387302 0.0 
0.137769 0.567007 0.0 
1.88736 0.267391 0.0 
1.26821 -1.94267 0.0 
0.21033 -0.605707 0.0 
2.61094 -1.50046 0.0 
0.819837 0.743337 0.0 
-1.4303 2.07799 0.0 
1.82013 0.322126 0.0 
-1.47649 2.2099 0.0 
1.15745 -0.274223 0.0 
-1.81198 2.24994 0.0 
2.34337 -1.67775 0.0 
-1.13329 1.37877 0.0 
-0.828215 1.05292 0.0 
2.46752 -1.53452 0.0 
-1.69915 2.18529 0.0 
-0.404416 -0.286271 0.0 
-1.23501 1.31766 0.0 
2.11757 -1.50659 0.0 
-1.08535 1.28274 0.0 
2.58548 -1.70783 0.0 
0.24729 -0.572345 0.0 
-1.66963 2.25319 0.0 
1.58322 -1.62308 0.0 
-0.367923 -0.306026 0.0 
0.391521 1.44485 0.0 
1.88977 -2.46319 0.0 
1.5943 -1.53613 0.0 
-0.357143 -0.23651 0.0 
0.82621 0.80563 0.0 
-1.59261 2.31884 0.0 
-0.47244 -0.307516 0.0 
-0.40334 -0.326688 0.0 
-2.00063 2.11543 0.0 
1.55514 -1.95078 0.0 
-1.40431 2.26352 0.0 
-0.0265928 0.573714 0.0 
1.17093 1.10579 0.0 
-1.77907 2.22111 0.0 
0.682788 0.329642 0.0 
-0.54475 2.15572 0.0 
-0.288592 0.289433 0.0 
-1.43199 2.16349 0.0 
-1.45029 2.25134 0.0 
1.5535 -1.79992 0.0 
-1.06406 1.08381 0.0 
1.72954 1.44966 0.0 
0.582806 0.515814 0.0 
0.582876 -0.679913 0.0 
1.32351 -0.355916 0.0 
-0.47505 0.577092 0.0 
-0.371167 0.227715 0.0 
1.52235 -1.8529 0.0 
-0.429822 -0.244811 0.0 
-0.53237 -0.24648 0.0 
-0.393983 -0.210364 0.0 
0.652895 0.317361 0.0 
1.55812 -1.70765 0.0 
1.63021 0.325622 0.0 
0.442731 0.358729 0.0 
1.22925 -1.85192 0.0 
1.43517 -1.79082 0.0 
1.39317 -1.6984 0.0 
1.62965 0.295952 0.0 
0.905462 0.793465 0.0 
1.04036 -1.64811 0.0 
2.1131 -1.72466 0.0 
-0.743911 0.369492 0.0 
1.14427 -1.99314 0.0 
1.26033 -2.0209 0.0 
-1.70955 2.07308 0.0 
0.910023 -1.62976 0.0 
-0.313059 -0.0954838 0.0 
-1.77334 2.3988 0.0 
-0.311958 -0.24042 0.0 
2.53315 0.325608 0.0 
-0.273728 -0.226719 0.0 
-0.646401 0.379627 0.0 
1.52426 0.616074 0.0 
2.21703 -1.79499 0.0 
2.71108 0.312216 0.0 
0.759924 1.093 0.0 
-1.69271 2.12368 0.0 
0.255794 0.540969 0.0 
0.0534699 0.562158 0.0 
-1.5679 2.22408 0.0 
-1.66906 2.45165 0.0 
-1.51895 2.09449 0.0 
2.16948 0.408238 0.0 
-0.818806 0.680638 0.0 
-0.826868 0.642087 0.0 
0.519855 0.276992 0.0 
-0.716682 1.18602 0.0 
-0.649974 -0.148775 0.0 
0.457368 0.256619 0.0 
0.517407 0.248194 0.0 
0.327129 0.39802 0.0 
0.533249 -0.878832 0.0 
-0.870735 0.634904 0.0 
1.19219 1.07557 0.0 
2.35922 0.366028 0.0 
-1.66911 3.66723 0.0 
-0.857603 1.54934 0.0 
-0.379189 2.30131 0.0 
-0.941007 1.36523 0.0 
-1.58662 2.49682 0.0 
-0.545297 0.352587 0.0 
0.327944 -0.744683 0.0 
-0.312756 0.524741 0.0 
-0.107843 0.506233 0.0 
2.13378 -2.36584 0.0 
1.52689 0.686953 0.0 
-0.119983 0.327909 0.0 
1.02161 -1.53072 0.0 
1.51507 0.39695 0.0 
-0.674484 1.02605 0.0 
-0.564724 -0.148435 0.0 
0.409388 0.290913 0.0 
0.252349 0.30842 0.0 
-1.09282 1.45998 0.0 
1.45674 -1.54484 0.0 
-0.266777 0.782169 0.0 
0.91327 -0.874389 0.0 
1.01208 1.13309 0.0 
-0.897136 1.35063 0.0 
-0.846484 0.489353 0.0 
1.47563 0.663768 0.0 
-1.22282 2.05021 0.0 
0.348906 0.416714 0.0 
1.41913 0.964648 0.0 
0.933289 -0.839038 0.0 
-1.85066 1.40221 0.0 
0.142477 1.99435 0.0 
-0.717809 0.341194 0.0 
-2.21177 1.41584 0.0 
0.396571 0.350929 0.0 
1.25171 -1.60721 0.0 
0.736798 0.393502 0.0 
-0.661427 0.19031 0.0 
2.18751 -2.32769 0.0 
-1.00908 1.6747 0.0 
2.21416 -2.07269 0.0 
-0.779194 0.642011 0.0 
-1.02312 1.3939 0.0 
2.08809 -2.24876 0.0 
-5 -4.48794 0.0 
1.61792 -1.46215 0.0 
-0.974627 1.38947 0.0 
1.81166 -2.48446 0.0 
-1.03635 1.47474 0.0 
0.869004 -1.74424 0.0 
0.956579 -1.78598 0.0 
1.07495 0.540689 0.0 
-1.08005 1.37763 0.0 
0.914755 -0.803058 0.0 
0.611759 -0.305322 0.0 
1.70043 -1.41356 0.0 
0.75708 -0.631542 0.0 
1.21215 1.01979 0.0 
-0.586902 0.440014 0.0 
1.9251 -2.56336 0.0 
-1.58261 1.91091 0.0 
-0.746541 1.26087 0.0 
-1.49915 1.13657 0.0 
-1.46675 0.971536 0.0 
-1.05881 0.930935 0.0 
0.71826 0.415078 0.0 
-0.701697 0.526982 0.0 
-1.56194 2.05157 0.0 
1.15988 0.991244 0.0 
1.38676 0.949615 0.0 
-1.61697 2.02689 0.0 
1.13748 -0.357331 0.0 
-1.8456 2.04561 0.0 
0.253686 -0.756334 0.0 
-1.53603 1.86509 0.0 
-1.43465 0.924137 0.0 
-1.00273 1.27416 0.0 
-1.03063 1.5132 0.0 
-1.32483 1.94769 0.0 
-0.965552 1.61445 0.0 
-0.239859 -0.245939 0.0 
-5 3.01776 0.0 
-5 -0.248741 0.0 
0.517491 1.87079 0.0 
-1.18776 1.8875 0.0 
2.27458 0.36201 0.0 
1.9794 0.331487 0.0 
0.503086 0.510306 0.0 
1.26387 -0.370702 0.0 
1.24483 0.550197 0.0 
1.12871 0.979556 0.0 
-1.48659 1.83259 0.0 
1.0672 0.958366 0.0 
-1.16856 1.61214 0.0 
-0.218637 -0.230696 0.0 
-5 1.81431 0.0 
1.37014 1.04658 0.0 
0.0950623 0.557621 0.0 
-1.23613 1.67303 0.0 
0.953731 -0.709843 0.0 
2.07568 -1.85385 0.0 
2.10836 -1.82014 0.0 
-0.994952 1.33552 0.0 
-1.86986 1.52312 0.0 
0.515812 0.447542 0.0 
0.842446 0.992035 0.0 
-1.42353 1.8223 0.0 
2.091 0.354014 0.0 
-0.937663 0.401428 0.0 
-1.69305 1.41997 0.0 
-1.82465 1.55127 0.0 
2.15192 0.384657 0.0 
-1.17972 1.37998 0.0 
-0.718866 -0.0130647 0.0 
-0.927867 0.290435 0.0 
1.56509 0.300406 0.0 
-5 -3.04052 0.0 
9.98027 -7 0.0 
0.176009 0.694641 0.0 
0.597997 -0.559941 0.0 
-0.546583 0.4849 0.0 
0.602022 -0.657834 0.0 
2.17737 0.379672 0.0 
1.89809 0.287017 0.0 
-1.58883 1.35796 0.0 
-1.2284 1.37063 0.0 
-1.43937 1.35342 0.0 
-1.59664 1.47263 0.0 
0.577431 -0.368705 0.0 
1.5263 -1.51093 0.0 
0.479666 0.796509 0.0 
0.894995 1.01463 0.0 
2.22312 0.363016 0.0 
-0.320562 0.726481 0.0 
-1.30188 2.41386 0.0 
0.43802 0.434693 0.0 
-0.761697 0.762024 0.0 
1.45688 -1.49591 0.0 
-0.65072 0.676835 0.0 
1.6097 -1.41509 0.0 
2.25768 0.399237 0.0 
1.85518 0.299709 0.0 
2.14618 0.290757 0.0 
2.25222 0.371677 0.0 
-1.93063 2.91367 0.0 
1.52717 0.319618 0.0 
1.67964 -1.62237 0.0 
1.35962 -0.439169 0.0 
1.63007 -1.54335 0.0 
-5 -0.764504 0.0 
-1.61377 2.62271 0.0 
1.73865 -1.57725 0.0 
-0.908306 1.23669 0.0 
1.60766 0.330292 0.0 
1.82509 -1.63054 0.0 
1.90521 0.312457 0.0 
1.98719 -1.6488 0.0 
-0.528791 0.39225 0.0 
1.94978 -2.39003 0.0 
-0.472559 0.718465 0.0 
-1.28058 2.26572 0.0 
0.881581 -0.556282 0.0 
2.26369 0.42542 0.0 
0.917309 -1.69962 0.0 
0.853954 -1.60945 0.0 
1.30086 -0.404316 0.0 
1.99565 -2.46852 0.0 
1.49445 -1.47573 0.0 
1.68285 0.863315 0.0 
2.03074 -2.37549 0.0 
2.52279 -0.506167 0.0 
2.56049 -1.76899 0.0 
-1.52889 2.56597 0.0 
2.81136 -0.570221 0.0 
1.3688 -1.46095 0.0 
1.29524 -0.373946 0.0 
-0.350504 0.671928 0.0 
-0.590282 0.564035 0.0 
-0.054366 2.16706 0.0 
1.50819 1.22548 0.0 
-0.548222 0.453941 0.0 
2.19936 -2.5207 0.0 
12.2704 -7 0.0 
1.6811 -1.36761 0.0 
-0.449261 0.559535 0.0 
0.537017 -0.527614 0.0 
-0.00733391 0.553304 0.0 
0.494109 -0.356396 0.0 
-0.7939 0.0827441 0.0 
0.39888 0.467333 0.0 
-1.04288 1.34095 0.0 
0.605019 1.02824 0.0 
0.847559 0.374727 0.0 
1.00336 0.618307 0.0 
2.1955 0.399186 0.0 
0.656973 0.401158 0.0 
-0.998431 2.73564 0.0 
[...]
<PointData>
  <DataArray type = "Float64" Name="VitesseP1" NumberOfComponents="3" format="ascii">
1 0 0.0 
1.08965 0 0.0 
1.03093 0 0.0 
1 0 0.0 
0.994663 0.0162491 0.0 
0.996947 0.0114714 0.0 
0.995536 0.0140132 0.0 
1.04233 -0.00435096 0.0 
1.04418 -0.00532694 0.0 
1.04947 -0.00492356 0.0 
0.99779 0.0124105 0.0 
0.985985 0.0735586 0.0 
0.996638 0.0118168 0.0 
0.996862 0.0126126 0.0 
0.998942 0.0124068 0.0 
0.991131 0.218755 0.0 
1.01941 0.0552027 0.0 
1.04915 -0.0265452 0.0 
0.998861 0.0118202 0.0 
0.995065 0.0149634 0.0 
1.0545 -0.0275041 0.0 
0.999011 0.0137037 0.0 
1.15925 -0.0268952 0.0 
1.04652 0.0108789 0.0 
1.06349 -0.00315034 0.0 
0.999013 0.0132545 0.0 
0.944157 0.00906221 0.0 
1.06297 -0.0226764 0.0 
0.0645547 0.0015862 0.0 
0.988676 0.0320513 0.0 
1.14119 0.0687993 0.0 
1.10862 0.143342 0.0 
0.998972 0.0126986 0.0 
1.03408 -0.0183329 0.0 
0.940979 0.0126593 0.0 
1.00593 0.0310932 0.0 
0.936366 -0.0513212 0.0 
1.08451 -0.00300536 0.0 
1.05634 0.00737561 0.0 
1.05378 -0.016508 0.0 
1.05665 -0.00611382 0.0 
0.926031 0.152158 0.0 
1.07491 -0.0121652 0.0 
1.12602 0.000285595 0.0 
1.06829 0.00576717 0.0 
1.06341 -0.014623 0.0 
1.06355 0.0325856 0.0 
1.05733 0.0226536 0.0 
1.19874 0.0248625 0.0 
0.939077 0.0360774 0.0 
1.04108 -0.00435862 0.0 
1.00261 0.0124761 0.0 
1.00009 0.017904 0.0 
1.04048 -0.00593251 0.0 
1.03639 0.243823 0.0 
0.0325555 0.0121049 0.0 
1.0441 -0.00326862 0.0 
1.00284 0.0128684 0.0 
0.999278 0.0159985 0.0 
1.16808 -0.00780264 0.0 
0.141454 -0.00185991 0.0 
1.00262 0.0131454 0.0 
1.09629 0.0581288 0.0 
1.12155 0.121923 0.0 
0.574166 0.0010722 0.0 
1.06062 -0.0274516 0.0 
1.07881 -0.00484943 0.0 
0.55245 0.134321 0.0 
0.862058 0.0858351 0.0 
1.18794 -0.0129091 0.0 
1.2022 -0.038634 0.0 
1.06687 -0.0122628 0.0 
0.999259 0.0144062 0.0 
1 0 0.0 
0.325363 -0.010627 0.0 
1.00237 0.0127325 0.0 
0.967847 0.0110052 0.0 
0.999272 0.014778 0.0 
1.00192 0.0119292 0.0 
1.17146 0.0353578 0.0 
1.03836 0.0213856 0.0 
0.749081 -0.0404211 0.0 
0.946162 0.263234 0.0 
1.17228 0.116585 0.0 
0.94579 0.0146238 0.0 
0.969674 0.00929663 0.0 
1.00225 0.0123548 0.0 
1.062 -0.0256928 0.0 
1.14235 0.0985958 0.0 
0.999341 0.0151342 0.0 
1.04526 0.0262858 0.0 
1.04209 -0.0151057 0.0 
1.09571 0.0807816 0.0 
0.934914 0.070576 0.0 
1.12387 0.126069 0.0 
1.00013 0.0131252 0.0 
1.00229 0.0111496 0.0 
0.025399 -0.164003 0.0 
0.999491 0.0143119 0.0 
1.19006 -0.234529 0.0 
0.943653 0.0234231 0.0 
0.918125 -0.0883326 0.0 
0.914901 -0.0744093 0.0 
1.04649 -0.00475307 0.0 
0.923749 -0.0782749 0.0 
0.966926 -0.00783087 0.0 
1.04176 -0.0170415 0.0 
1.06866 -0.00383366 0.0 
1.19588 0.0840851 0.0 
1.03756 -0.016563 0.0 
0.919425 -0.0886177 0.0 
0.954546 -0.00332447 0.0 
0.0820844 0.00986403 0.0 
1.20235 0.0322562 0.0 
1.04365 -0.00452765 0.0 
1.036 -0.0183812 0.0 
1.03807 -0.00855389 0.0 
1.04137 -0.0120337 0.0 
1.03534 -0.0123843 0.0 
1.03239 -0.0173549 0.0 
1.16154 0.185233 0.0 
1.039 -0.00692772 0.0 
0.87652 0.126432 0.0 
0.999259 0.021517 0.0 
1.03487 -0.0209039 0.0 
1.04143 0.00454851 0.0 
1.03697 -0.0232737 0.0 
1.19534 0.0919256 0.0 
1.06068 -0.0151329 0.0 
1.00036 0.0185363 0.0 
1.03896 -0.00901742 0.0 
1.02881 0.0488109 0.0 
1.00094 0.014165 0.0 
1.03665 -0.0209443 0.0 
1.05845 -0.0115537 0.0 
1.08618 0.190052 0.0 
1.06779 -0.0735946 0.0 
0.166003 0.0042463 0.0 
1.05438 0.0215497 0.0 
0.454416 -0.0388057 0.0 
0.425966 -0.00715101 0.0 
0.976616 0.197176 0.0 
0.0685232 -0.00583574 0.0 
1.03765 -0.0144052 0.0 
1.02981 -0.16065 0.0 
1.05166 0.0479807 0.0 
1.13812 0.121914 0.0 
0.998918 0.0201071 0.0 
0.0784924 0.00748694 0.0 
0.999149 0.0191446 0.0 
0.407476 -0.016541 0.0 
0.998915 0.0150901 0.0 
1.04613 0.0261212 0.0 
0.98505 0.025208 0.0 
0.973206 0.0350336 0.0 
1.05667 0.0370049 0.0 
0.998743 0.0163731 0.0 
0.922146 -0.079485 0.0 
0.984048 0.0215834 0.0 
1.06737 0.0193059 0.0 
0.981436 0.0260634 0.0 
1.03316 0.032655 0.0 
1.03908 -0.171135 0.0 
0.999055 0.0166579 0.0 
1.05848 -0.00730031 0.0 
0.919536 -0.0858654 0.0 
1.03353 0.071094 0.0 
1.04775 -0.00182432 0.0 
1.06727 -0.00771316 0.0 
0.915803 -0.0816374 0.0 
1.13152 0.113749 0.0 
0.999403 0.0174429 0.0 
0.927058 -0.0726963 0.0 
0.921579 -0.0825759 0.0 
0.998709 0.0131336 0.0 
1.04139 -0.00525089 0.0 
0.999681 0.019977 0.0 
0.93809 0.152144 0.0 
1.12917 0.0502793 0.0 
0.998853 0.0154589 0.0 
0.628257 0.110276 0.0 
1.00648 0.0353241 0.0 
0.862688 0.0457518 0.0 
0.999095 0.0198835 0.0 
0.999471 0.0193878 0.0 
1.04476 -0.00667106 0.0 
0.973757 0.0245147 0.0 
1.07459 -0.0386469 0.0 
1.13986 0.200741 0.0 
1.10784 -0.129184 0.0 
0.866363 -0.030732 0.0 
0.937691 0.0523733 0.0 
0.874408 0.0166774 0.0 
1.04373 -0.00729514 0.0 
0.923431 -0.0730316 0.0 
0.932607 -0.0625212 0.0 
0.918144 -0.074158 0.0 
0.576558 0.110528 0.0 
1.04973 -0.00748632 0.0 
0.112082 0.0203085 0.0 
1.03486 0.265448 0.0 
1.03899 -0.0174672 0.0 
1.04353 -0.0112592 0.0 
1.04821 -0.0145184 0.0 
0.0921227 0.0278723 0.0 
1.14154 0.10532 0.0 
1.04328 -0.0294112 0.0 
1.04756 0.0159843 0.0 
0.941035 0.00889232 0.0 
1.03359 -0.0172699 0.0 
1.03564 -0.0130792 0.0 
0.998823 0.0162685 0.0 
1.04044 -0.0346178 0.0 
0.897873 -0.0653509 0.0 
0.999246 0.015318 0.0 
0.909015 -0.0856549 0.0 
0.210364 -0.0231146 0.0 
0.887133 -0.083837 0.0 
0.93218 0.0164237 0.0 
1.20071 0.04521 0.0 
1.04364 0.0192759 0.0 
0.285326 -0.0511014 0.0 
1.09513 0.088379 0.0 
0.99867 0.0164683 0.0 
1.01776 0.223736 0.0 
0.950556 0.17789 0.0 
0.999066 0.017928 0.0 
0.999565 0.0162669 0.0 
0.998878 0.0187839 0.0 
0.571566 -0.00564369 0.0 
0.967368 0.0255545 0.0 
0.965064 0.0230428 0.0 
0.41151 0.135647 0.0 
0.976204 0.0415586 0.0 
0.939659 -0.0443197 0.0 
0.29909 0.101179 0.0 
0.37347 0.184459 0.0 
1.06149 0.297378 0.0 
1.06824 -0.10308 0.0 
0.966845 0.0199508 0.0 
1.13672 0.050509 0.0 
0.313645 -0.00920613 0.0 
1.00061 0.0117559 0.0 
0.990294 0.0344051 0.0 
1.01021 0.0358513 0.0 
0.983623 0.0317174 0.0 
0.99991 0.0169985 0.0 
0.918244 0.0216751 0.0 
1.05776 -0.13162 0.0 
0.918348 0.0761362 0.0 
0.907914 0.132477 0.0 
1.04761 0.0134443 0.0 
1.19164 0.0423242 0.0 
0.829112 0.117059 0.0 
1.0551 -0.0341693 0.0 
0.55579 0.0228944 0.0 
0.975493 0.044151 0.0 
0.932008 -0.0502086 0.0 
0.698837 0.194552 0.0 
0.89749 0.339211 0.0 
0.987186 0.0268884 0.0 
1.06503 -0.0142645 0.0 
0.96665 0.0869167 0.0 
1.11209 -0.0770252 0.0 
1.10999 0.0635475 0.0 
0.982987 0.0333797 0.0 
0.955944 0.0124523 0.0 
1.19241 0.0477756 0.0 
0.99933 0.0235736 0.0 
1.07583 0.284493 0.0 
1.16459 0.0374511 0.0 
1.1225 -0.0780554 0.0 
0.994058 0.0105525 0.0 
1.0182 0.0473231 0.0 
0.937032 0.00777128 0.0 
0.997226 0.00881672 0.0 
1.01616 0.284738 0.0 
1.05439 -0.0222367 0.0 
0.994848 0.151832 0.0 
0.924663 -0.00636683 0.0 
1.03789 0.0316345 0.0 
0.992839 0.0293975 0.0 
1.03777 0.0163724 0.0 
0.962458 0.026238 0.0 
0.984876 0.0288992 0.0 
1.03785 0.00765147 0.0 
1 0 0.0 
1.06798 -0.00716914 0.0 
0.98459 0.0305607 0.0 
1.0458 -0.00115214 0.0 
0.987479 0.0286899 0.0 
1.03096 -0.0317419 0.0 
1.03317 -0.0279272 0.0 
1.19247 0.10135 0.0 
0.984672 0.0269099 0.0 
1.12813 -0.0826523 0.0 
0.911863 -0.146744 0.0 
1.06641 -0.0030829 0.0 
1.12648 -0.115073 0.0 
1.14538 0.0528402 0.0 
0.930877 0.027707 0.0 
1.03708 0.00132119 0.0 
0.996035 0.0177109 0.0 
0.97951 0.0399289 0.0 
0.983953 0.011603 0.0 
0.995455 0.0108391 0.0 
0.989909 0.0218045 0.0 
1.08582 0.169047 0.0 
0.9482 0.0249831 0.0 
0.998818 0.0181556 0.0 
1.14414 0.0603017 0.0 
1.16345 0.0411805 0.0 
0.998547 0.0173914 0.0 
0.928022 -0.0572952 0.0 
0.99915 0.0146312 0.0 
1.04195 -0.128379 0.0 
0.995131 0.0183227 0.0 
1.00017 0.0114923 0.0 
0.980555 0.0289711 0.0 
0.988748 0.0289366 0.0 
0.996706 0.0219565 0.0 
0.99187 0.0307978 0.0 
0.881471 -0.105626 0.0 
1 0 0.0 
1 0 0.0 
1.03068 0.0481571 0.0 
0.995388 0.0246524 0.0 
0.256642 -0.00553868 0.0 
0.0604581 0.0123674 0.0 
1.11549 0.217905 0.0 
0.955868 -0.0455186 0.0 
1.20043 0.0773897 0.0 
1.14275 0.0644075 0.0 
0.994558 0.0190478 0.0 
1.13968 0.0724823 0.0 
0.991805 0.0252124 0.0 
0.947514 -0.163925 0.0 
1 0 0.0 
1.1551 0.035452 0.0 
0.96081 0.190507 0.0 
0.992791 0.0237056 0.0 
1.14255 -0.0856488 0.0 
1.04378 0.0132744 0.0 
1.04408 0.0148973 0.0 
0.982692 0.0296446 0.0 
0.995346 0.0117983 0.0 
1.12651 0.233035 0.0 
1.11705 0.0920726 0.0 
0.994311 0.0201189 0.0 
0.176827 0.00339894 0.0 
0.958218 0.0014966 0.0 
0.992071 0.0126283 0.0 
0.995277 0.0125201 0.0 
0.391229 -0.00196033 0.0 
0.985407 0.0238075 0.0 
0.94807 -0.0291662 0.0 
0.953342 -0.00655488 0.0 
0.0969299 -0.00886463 0.0 
1 0 0.0 
1.06962 0 0.0 
1.0069 0.166873 0.0 
1.11874 -0.146377 0.0 
0.93161 0.0362186 0.0 
1.11171 -0.130486 0.0 
0.358362 -0.00221199 0.0 
0.0783392 -0.00369427 0.0 
0.989587 0.0133744 0.0 
0.985545 0.0223098 0.0 
0.987361 0.0165481 0.0 
0.991636 0.0148131 0.0 
1.10682 -0.173638 0.0 
1.06698 -0.0113666 0.0 
1.07864 0.148051 0.0 
1.11998 0.0849998 0.0 
0.252579 -0.00186036 0.0 
0.956213 0.0797271 0.0 
1.00089 0.0206621 0.0 
1.10959 0.257844 0.0 
0.972 0.033018 0.0 
1.06619 -0.0151777 0.0 
0.958976 0.0383229 0.0 
1.06589 -0.00814549 0.0 
0.518642 -0.0111467 0.0 
0.0790717 0.0100894 0.0 
0.0659833 0.0179558 0.0 
0.317002 -0.00420112 0.0 
0.999871 0.0125694 0.0 
0.0842123 0.0033514 0.0 
1.05921 -0.00289802 0.0 
1.15709 -0.043365 0.0 
1.06727 -0.00588764 0.0 
1 0 0.0 
1.00006 0.0162664 0.0 
1.0653 -0.000226074 0.0 
0.978911 0.0325746 0.0 
0.0996286 0.0105857 0.0 
1.05902 0.00392799 0.0 
0.0760005 -0.000127843 0.0 
1.05638 0.0113097 0.0 
0.919927 0.028372 0.0 
1.04279 -3.22509e-05 0.0 
0.956953 0.0587921 0.0 
1.0002 0.0217055 0.0 
1.1946 -0.110556 0.0 
0.706821 -0.0153815 0.0 
1.03506 -0.0317583 0.0 
1.04096 -0.0371595 0.0 
1.06552 -0.0450567 0.0 
1.0555 0.00960842 0.0 
1.06674 -0.0135574 0.0 
1.18536 0.0186608 0.0 
1.04244 0.0134113 0.0 
1.24356 0.0787622 0.0 
1.03507 0.0278285 0.0 
1.00027 0.0173384 0.0 
1.18011 0.102992 0.0 
1.06422 -0.0202571 0.0 
0.968593 -0.0456838 0.0 
0.947291 0.074647 0.0 
0.943859 0.037755 0.0 
1.0149 0.0431757 0.0 
1.13294 0.000386409 0.0 
0.928512 0.0330541 0.0 
1.00682 -0.00586471 0.0 
1.06688 0 0.0 
1.06285 -0.00441953 0.0 
0.9334 0.0548548 0.0 
1.1384 -0.163918 0.0 
0.934861 0.161096 0.0 
1.10139 -0.195033 0.0 
0.952218 -0.0198732 0.0 
1.08629 0.251729 0.0 
0.983169 0.0279378 0.0 
1.08647 0.105879 0.0 
0.781579 0.101684 0.0 
1.17503 0.107633 0.0 
0.50738 -0.00673469 0.0 
1.07253 0.186975 0.0 
1.00466 0.0216257 0.0 
1.05615 0.0140904 0.0 
1.04283 0.00775202 0.0 
1.04706 -0.0018167 0.0 
1.04569 -0.000715705 0.0 
0.0721319 0.016402 0.0 
1.0418 0.00124826 0.0 
-0.0315137 0.0155091 0.0 
1.08288 -0.0489703 0.0 
1.00441 0.0357677 0.0 
1.04438 0.00835021 0.0 
1 0 0.0 
0.983157 0.0267642 0.0 
1.19321 0.097096 0.0 
0.81062 -0.044434 0.0 
0.999907 0.0156975 0.0 
0.991782 0.0396462 0.0 
1.04955 0.00904857 0.0 
1.05433 0.00424319 0.0 
0.938983 0.189757 0.0 
0.774785 0.13039 0.0 
1.00478 0.0185174 0.0 
1.1322 0.121632 0.0 
0.998701 0.244091 0.0 
0.999382 0.0122535 0.0 
0.985869 0.0296127 0.0 
1.0507 0.000226662 0.0 
0.937201 0.125346 0.0 
0.172811 0.00327106 0.0 
1.04973 0.00233646 0.0 
0.171987 0.0978579 0.0 
1.04989 -0.00183341 0.0 
1.03617 -0.0186078 0.0 
1.01632 0.0486504 0.0 
1.13847 -0.0570957 0.0 
1.04657 0.00134197 0.0 
0.956852 -0.00594013 0.0 
0.342299 0.0150355 0.0 
1.06288 -0.0235649 0.0 
0.946348 -0.00113272 0.0 
1.00013 0.0153738 0.0 
1.06042 -0.0284301 0.0 
0.941351 0.0663065 0.0 
1.19706 -0.0461589 0.0 
0.272044 -0.026876 0.0 
0.642916 -0.0180138 0.0 
0.940838 -0.00433603 0.0 
0.963453 0.273036 0.0 
0.249516 0.047453 0.0 
0.995416 0.316498 0.0 
0.958752 -0.0108289 0.0 
1.07834 -0.0437023 0.0 
0.728183 -0.00191244 0.0 
0.354953 0.116113 0.0 
1.10142 0.0715052 0.0 
0.998918 0.0123977 0.0 
0.58156 -0.000126423 0.0 
0.156754 0.0266379 0.0 
0.913969 -0.0432165 0.0 
0.796154 -0.0268943 0.0 
1.03148 0.0446885 0.0 
0.998909 0.0120219 0.0 
1.02558 -0.0982906 0.0 
1.11143 -0.0349532 0.0 
1.17092 0.0254913 0.0 
0.0791124 0.00312613 0.0 
0.935874 -0.0575696 0.0 
1.03649 0.0423223 0.0 
1.06685 -0.00927356 0.0 
0.937796 -0.00874801 0.0 
0.0708734 0.00957309 0.0 
0.99897 0.0129567 0.0 
1.17003 0.0293742 0.0 
1.05875 -0.0276588 0.0 
0.962812 0.216852 0.0 
1.05432 0.0131633 0.0 
1.06843 -0.00110086 0.0 
1.06854 0.00360368 0.0 
0.954209 0.0380716 0.0 
1.06072 -0.0254642 0.0 
0.999134 0.0141491 0.0 
0.951999 0.00740279 0.0 
1.13527 -0.0340114 0.0 
1.05481 0.0185349 0.0 
0.989311 0.00770657 0.0 
0.953165 0.0157073 0.0 
0.999189 0.0143304 0.0 
1.05814 0.00367677 0.0 
1.0416 -0.00553837 0.0 
1.06051 -0.022739 0.0 
0.990484 0.00935723 0.0 
1.02156 0.0453025 0.0 
0.998942 0.0136451 0.0 
1.04443 -0.0272245 0.0 
1.06582 0.0176004 0.0 
0.05674 0.018809 0.0 
0.0542511 0.0153891 0.0 
1.06901 0.0136457 0.0 
0.90479 -0.0562689 0.0 
0.885669 -0.0478393 0.0 
0.873462 0.120988 0.0 
0.999714 0.0142229 0.0 
0.999033 0.014271 0.0 
0.962666 -0.0129277 0.0 
0.964821 -0.00166612 0.0 
1.03476 0.0241903 0.0 
0.962743 0.235694 0.0 
1.06618 0.153321 0.0 
1.02976 -0.0447125 0.0 
0.0672942 0.000475744 0.0 
1.15938 0.0254502 0.0 
1.09825 0.14229 0.0 
0.998851 0.0138017 0.0 
1.01525 0.0351217 0.0 
1.11126 -0.00635669 0.0 
0.982661 0.0214197 0.0 
0.934095 0.0469587 0.0 
1.03027 -0.0297924 0.0 
0.973101 0.0379374 0.0 
0.940594 0.109741 0.0 
0.933724 0.0595289 0.0 
0.848499 -0.0415835 0.0 
0.962682 0.00747007 0.0 
0.785956 -0.048004 0.0 
1.00144 0.0184768 0.0 
1.03063 0.044641 0.0 
0.953622 -0.00995524 0.0 
0.961388 -0.000711982 0.0 
0.922233 0.0346676 0.0 
1.09892 0.250023 0.0 
0.97218 0.00643731 0.0 
0.939896 0.292243 0.0 
0.945076 0.0332664 0.0 
0.974191 0.227268 0.0 
0.847572 0.286284 0.0 
0.995192 0.00788392 0.0 
1.00091 0 0.0 
0.998898 0.0124599 0.0 
0.977148 0.00187805 0.0 
0.888709 0.154256 0.0 
0.133404 0.0101663 0.0 
1.01104 0.0445395 0.0 
0.980646 0.00752204 0.0 
0.999458 0.0128647 0.0 
0.915203 -0.0717192 0.0 
0.916236 0.0334492 0.0 
1.19368 -0.0346967 0.0 
0.998834 0.0127136 0.0 
0.938773 0.0708632 0.0 
0.803195 -0.0855153 0.0 
1.03311 -0.0239473 0.0 
0.935772 0.064284 0.0 
0.995389 0.0166467 0.0 
0.944123 0.0279987 0.0 
0.991071 0.0205733 0.0 
0.0791835 0.0155431 0.0 
0.794664 -0.0751479 0.0 
1.04377 -0.00352718 0.0 
1.15615 0.0798358 0.0 
1.15331 -0.0345289 0.0 
0.997726 0.0110658 0.0 
0.982101 0.0191026 0.0 
1.00058 0.202836 0.0 
1.11305 0.159349 0.0 
0.577099 0.0952409 0.0 
0.950271 0.189974 0.0 
0.981468 0.0194704 0.0 
0.300023 -0.0356176 0.0 
0.982466 0.0224247 0.0 
0.997362 0.0131107 0.0 
1.00068 0.0200155 0.0 
0.245259 -0.0246536 0.0 
0.197157 -0.015522 0.0 
0.981638 0.0307558 0.0 
0.333729 0.0575729 0.0 
1.19217 0.0927427 0.0 
1.01027 0.0439807 0.0 
0.980785 0.033034 0.0 
0.999985 0.0199428 0.0 
0.977784 0.0116334 0.0 
0.929841 0.0693389 0.0 
0.976396 0.0262491 0.0 
0.851076 0.285632 0.0 
0.523724 -0.0326362 0.0 
0.2183 -0.0205194 0.0 
0.968012 0.013922 0.0 
0.974644 0.0125444 0.0 
1.05321 0.205939 0.0 
0.319149 -0.0306225 0.0 
0.939568 0.0214213 0.0 
1.03341 -0.0391921 0.0 
0.981948 0.246701 0.0 
0.99955 0.0138559 0.0 
0.922034 0.0824778 0.0 
0.972206 0.0316266 0.0 
0.929442 0.144098 0.0 
0.953604 0.157008 0.0 
1.00769 0.25617 0.0 
0.741242 -0.0297149 0.0 
0.936894 -0.0522894 0.0 
1.11621 0.0570308 0.0 
0.464941 0.0934693 0.0 
0.925944 -0.0595899 0.0 
0.103735 0.00991656 0.0 
0.898583 -0.012577 0.0 
0.742937 0.135961 0.0 
0.914563 -0.0663045 0.0 
0.921696 -0.0560492 0.0 
0.610096 0.165088 0.0 
1.04636 0.00626112 0.0 
0.940099 0.174244 0.0 
0.879191 -0.00459469 0.0 
0.92785 -0.0536478 0.0 
1.04057 -0.00608579 0.0 
0.336606 0.0410061 0.0 
1.0373 -0.00935773 0.0 
0.865592 0.00776886 0.0 
0.893654 0.217616 0.0 
1.0489 -0.00165433 0.0 
0.906045 -0.0879694 0.0 
0.916711 0.1833 0.0 
0.295886 -0.0338575 0.0 
1.12968 0.0598199 0.0 
1.02989 0.171282 0.0 
0.829089 0.380895 0.0 
1.10094 0.166513 0.0 
1.0618 0.260858 0.0 
0.974869 -0.0455586 0.0 
0.768032 -0.102283 0.0 
0.977474 0.0338962 0.0 
0.512971 0.0618012 0.0 
0.917922 -0.0525149 0.0 
1.04768 0.0647624 0.0 
0.179141 2.48422e-05 0.0 
1.04264 0.264701 0.0 
1.05912 0.0394289 0.0 
0.878424 0.105903 0.0 
1.00578 0.022127 0.0 
0.892269 0.0675114 0.0 
0.12542 0.0102156 0.0 
0.85275 0.0769315 0.0 
0.949109 0.0374069 0.0 
0.947082 0.00423368 0.0 
1.17312 -0.0399168 0.0 
0.762037 0.3357 0.0 
0.847086 0.0896613 0.0 
1.02815 0.0743716 0.0 
1.08132 -0.0957876 0.0 
0.920586 -0.046736 0.0 
1.03773 0.272771 0.0 
0.964516 0.0173314 0.0 
0.995736 0.0410697 0.0 
0.909769 0.0776418 0.0 
0.923986 0.113394 0.0 
0.910284 0.0358988 0.0 
1.01004 0.0280021 0.0 
0.919244 0.106679 0.0 
0.916504 0.221592 0.0 
0.999456 0.0129305 0.0 
1.09122 -0.0714622 0.0 
0.312352 -0.0393829 0.0 
1.05113 0.252148 0.0 
0.965225 0.203966 0.0 
0.806434 0.151764 0.0 
0.826398 0.0386327 0.0 
0.885855 0.0302777 0.0 
1.04052 0.306069 0.0 
0.999849 0.0177308 0.0 
1.12363 0.141813 0.0 
1.03193 0.227556 0.0 
0.885782 -0.0480772 0.0 
0.922584 -0.00161389 0.0 
0.85767 0.15903 0.0 
0.910582 0.0210736 0.0 
0.884733 0.0152432 0.0 
0.931892 -0.0459539 0.0 
0.933272 0.208064 0.0 
0.995854 0.0310019 0.0 
0.999886 0.0151485 0.0 
0.102586 0.0145522 0.0 
0.0910622 0.0149863 0.0 
0.912531 0.0282149 0.0 
0.523182 0.153442 0.0 
1.03859 -0.00786428 0.0 
0.921297 -0.016119 0.0 
0.977857 -0.000625643 0.0 
0.902119 0.0770915 0.0 
0.841344 0.00709296 0.0 
1.08123 -0.0678672 0.0 
0.954831 0.0083706 0.0 
0.97536 0.00953113 0.0 
1.0827 0.268864 0.0 
0.223873 -0.016358 0.0 
0.929456 0.300873 0.0 
0.972843 0.00301695 0.0 
0.988705 0.0550426 0.0 
1.06789 -0.229317 0.0 
0.9688 0.00507051 0.0 
0.961497 0.0129844 0.0 
0.99777 0.013673 0.0 
1.03773 -0.0091067 0.0 
0.790089 0.108951 0.0 
0.90408 0.0187997 0.0 
0.990834 0.00582705 0.0 
1.02749 -0.182834 0.0 
0.995255 0.015917 0.0 
0.93517 0.0245708 0.0 
0.805849 0.168285 0.0 
0.949791 -0.00820279 0.0 
0.998137 0.0105253 0.0 
0.938472 0.00507512 0.0 
0.187493 0.128328 0.0 
0.943606 -0.00811678 0.0 
1.06479 -0.0105884 0.0 
0.952783 0.289425 0.0 
0.0628329 0.00704381 0.0 
1.09982 0.256259 0.0 
0.987861 0.0153639 0.0 
0.941449 -0.134081 0.0 
0.968698 0.00221852 0.0 
0.959412 0.00955048 0.0 
0.959675 0.0049231 0.0 
0.541096 0.134575 0.0 
0.961726 0.00222874 0.0 
0.955816 -0.0133058 0.0 
0.648215 0.184137 0.0 
1.03445 -0.0128662 0.0 
1.03403 0.0471049 0.0 
0.994375 0.266599 0.0 
0.980906 0.0214054 0.0 
0.975276 0.0296679 0.0 
0.964496 0.00432118 0.0 
0.893056 0.0132987 0.0 
0.95878 -0.017623 0.0 
0.114392 0.00329968 0.0 
0.968562 0.000140121 0.0 
1.06003 0.0154289 0.0 
0.875504 0.168642 0.0 
0.996501 0.0124929 0.0 
1.06598 0.0259204 0.0 
1.05693 0.0966468 0.0 
1.10154 -0.071603 0.0 
1.0956 0.106589 0.0 
0.976414 -0.00260585 0.0 
0.876122 0.183599 0.0 
0.996711 0.0149054 0.0 
0.99698 0.0115387 0.0 
0.889324 -0.0409494 0.0 
0.978549 0.0264154 0.0 
1.16289 -0.227137 0.0 
0.670011 0.0145914 0.0 
0.94169 0.0420972 0.0 
1.01604 0.303443 0.0 
0.906307 0.353591 0.0 
0.83849 0.13261 0.0 
1.15883 0.07704 0.0 
0.153262 0.133843 0.0 
1.01632 0.290356 0.0 
1.06428 0.266797 0.0 
1.03941 -0.00627113 0.0 
0.938327 0.0949135 0.0 
0.0455292 0.00944625 0.0 
1.17474 0.149437 0.0 
0.977628 0.0325585 0.0 
0.909435 0.12269 0.0 
1.12458 0.221072 0.0 
0.850853 0.12481 0.0 
-0.0439437 -0.0167917 0.0 
0.97874 0.0306783 0.0 
0.92468 0.074216 0.0 
0.739925 0.140447 0.0 
0.979594 0.0273929 0.0 
0.911145 0.150794 0.0 
0.995925 0.0129608 0.0 
0.90262 0.102063 0.0 
0.979079 0.028572 0.0 
0.853495 0.0560693 0.0 
0.830583 0.0228627 0.0 
0.903591 0.164845 0.0 
0.998864 0.0117148 0.0 
0.968777 -0.00435732 0.0 
0.980065 0.0257189 0.0 
0.999322 0.0180406 0.0 
0.962607 -0.00439689 0.0 
0.961585 -0.00808949 0.0 
0.966072 -0.00384567 0.0 
0.937904 -0.0413282 0.0 
0.925499 0.058663 0.0 
0.926019 0.0887286 0.0 
1.04167 -0.0017271 0.0 
0.989732 0.032751 0.0 
1.06469 0.0270088 0.0 
0.999474 0.0148294 0.0 
1.07803 -0.00772438 0.0 
1.00487 0.0811102 0.0 
0.949494 0.0136999 0.0 
0.976779 0.0277289 0.0 
1.04915 -0.161216 0.0 
1.09911 0.244116 0.0 
1.12314 0.232588 0.0 
0.932977 -0.0320058 0.0 
0.999359 0.0143481 0.0 
0.950997 0.011345 0.0 
0.996451 0.0140425 0.0 
0.979431 0.00578579 0.0 
1.05538 0.00883995 0.0 
1.04796 -0.1719 0.0 
0.0658726 0.00467806 0.0 