<VTKFile type="UnstructuredGrid" version="0.1" byte_order="LittleEndian">
  <UnstructuredGrid>
    <Piece NumberOfPoints="9712" NumberOfCells="19403">
      <Points>
        <DataArray type = "Float64" NumberOfComponents="3" format="ascii">
-5 -7 0.0 
15.5 -7 0.0 
15.5 7 0.0 
-5 7 0.0 
-1.6546 1.77742 0.0 
-2.13867 1.86504 0.0 
-1.83467 1.79143 0.0 
1.47969 -2.21179 0.0 
1.36003 -2.38618 0.0 
1.4346 -2.45048 0.0 
-2.04214 1.94165 0.0 
-0.20425 1.17338 0.0 
-2.07648 1.81911 0.0 
-2.00827 1.89081 0.0 
-2.05492 1.98872 0.0 
0.192693 0.536219 0.0 
0.154285 1.75648 0.0 
1.1379 -1.62057 0.0 
-2.11226 1.96977 0.0 
-1.74119 1.75327 0.0 
1.14499 -1.58184 0.0 
-1.94373 2.37229 0.0 
1.50619 -0.664239 0.0 
1.99658 -1.76705 0.0 
1.7229 -1.18344 0.0 
-1.97759 2.52091 0.0 
-0.768046 0.387136 0.0 
1.32657 -1.43969 0.0 
1.90142 0.24821 0.0 
-0.93264 1.51038 0.0 
1.09557 0.967223 0.0 
0.627111 0.757352 0.0 
-2.05707 2.31394 0.0 
1.34027 -2.45136 0.0 
-0.725097 0.397516 0.0 
-0.666094 2.30428 0.0 
-0.73829 -0.279965 0.0 
1.73336 -1.08822 0.0 
1.88466 -1.24421 0.0 
1.50539 -1.23752 0.0 
1.65978 -1.30759 0.0 
-0.0409718 0.542603 0.0 
1.6005 -1.1227 0.0 
1.78439 -0.941488 0.0 
1.86015 -1.54236 0.0 
1.49308 -1.40058 0.0 
2.34892 -1.47149 0.0 
2.13832 -1.3246 0.0 
1.73061 0.751302 0.0 
-0.580328 0.526903 0.0 
1.51013 -2.1595 0.0 
-1.65424 3.45779 0.0 
-1.51397 2.46352 0.0 
1.42773 -2.17867 0.0 
0.304353 0.497878 0.0 
2.24628 0.228293 0.0 
1.51258 -2.27933 0.0 
-1.60346 3.44299 0.0 
-1.71408 2.36227 0.0 
2.17421 0.530405 0.0 
2.42 0.316451 0.0 
-1.63642 3.31911 0.0 
2.53942 -0.995036 0.0 
0.750003 0.810439 0.0 
2.04736 0.40918 0.0 
1.19615 -1.50641 0.0 
2.13474 0.494063 0.0 
0.547924 0.306722 0.0 
-0.2059 0.361394 0.0 
2.2127 0.547693 0.0 
1.41442 -0.597105 0.0 
1.52233 -1.46252 0.0 
-1.84114 2.53924 0.0 
-5 -2.53894 0.0 
2.32127 0.371156 0.0 
-1.69186 3.33379 0.0 
-0.964779 0.566136 0.0 
-1.81311 2.48387 0.0 
-1.78557 3.38304 0.0 
1.48278 0.914136 0.0 
2.51531 -1.89689 0.0 
1.20982 -0.330514 0.0 
0.408434 0.319657 0.0 
0.95023 0.60993 0.0 
-0.752349 0.440796 0.0 
-0.998248 0.564019 0.0 
-1.73165 3.36299 0.0 
1.24353 -1.49063 0.0 
0.942095 0.817189 0.0 
-1.77816 2.47096 0.0 
2.48183 -1.95479 0.0 
1.33574 -1.77854 0.0 
0.823335 1.12085 0.0 
-0.36308 0.598468 0.0 
0.745466 0.783414 0.0 
-1.88344 2.8521 0.0 
-1.79794 3.52221 0.0 
3.0087 0.272815 0.0 
-1.81486 2.66014 0.0 
0.375911 -0.403668 0.0 
-0.68323 0.487288 0.0 
-0.34187 -0.274923 0.0 
-0.293875 -0.201368 0.0 
1.61018 -1.767 0.0 
-0.448275 -0.347267 0.0 
-1.08687 0.352015 0.0 
1.29257 -1.76345 0.0 
1.67658 -1.49551 0.0 
1.19193 0.533009 0.0 
1.21582 -1.91654 0.0 
-0.36438 -0.346225 0.0 
-0.92534 0.330346 0.0 
2.3836 0.287756 0.0 
1.68841 0.639887 0.0 
1.59001 -1.89458 0.0 
1.14818 -1.92143 0.0 
1.28996 -2.19426 0.0 
1.37603 -1.8763 0.0 
1.23834 -2.09141 0.0 
1.11702 -2.06287 0.0 
0.691829 0.463808 0.0 
1.46523 -2.03459 0.0 
-0.123547 0.424486 0.0 
-1.3311 2.12174 0.0 
1.08169 -1.90074 0.0 
1.87975 -2.15971 0.0 
1.10131 -1.78593 0.0 
1.13722 0.534683 0.0 
1.42465 -1.59031 0.0 
-1.45435 2.47344 0.0 
1.41998 -1.98207 0.0 
0.463917 1.8787 0.0 
-1.72896 2.89571 0.0 
1.12419 -1.84975 0.0 
1.59054 -1.20634 0.0 
0.46124 0.621002 0.0 
0.806438 -1.00204 0.0 
2.1804 0.349761 0.0 
2.21142 -1.6418 0.0 
1.10152 -0.274558 0.0 
2.23388 0.387302 0.0 
0.137769 0.567007 0.0 
1.88736 0.267391 0.0 
1.26821 -1.94267 0.0 
0.21033 -0.605707 0.0 
2.61094 -1.50046 0.0 
0.819837 0.743337 0.0 
-1.4303 2.07799 0.0 
1.82013 0.322126 0.0 
-1.47649 2.2099 0.0 
1.15745 -0.274223 0.0 
-1.81198 2.24994 0.0 
2.34337 -1.67775 0.0 
-1.13329 1.37877 0.0 
-0.828215 1.05292 0.0 
2.46752 -1.53452 0.0 
-1.69915 2.18529 0.0 
-0.404416 -0.286271 0.0 
-1.23501 1.31766 0.0 
2.11757 -1.50659 0.0 
-1.08535 1.28274 0.0 
2.58548 -1.70783 0.0 
0.24729 -0.572345 0.0 
-1.66963 2.25319 0.0 
1.58322 -1.62308 0.0 
-0.367923 -0.306026 0.0 
0.391521 1.44485 0.0 
1.88977 -2.46319 0.0 
1.5943 -1.53613 0.0 
-0.357143 -0.23651 0.0 
0.82621 0.80563 0.0 
-1.59261 2.31884 0.0 
-0.47244 -0.307516 0.0 
-0.40334 -0.326688 0.0 
-2.00063 2.11543 0.0 
1.55514 -1.95078 0.0 
-1.40431 2.26352 0.0 
-0.0265928 0.573714 0.0 
1.17093 1.10579 0.0 
-1.77907 2.22111 0.0 
0.682788 0.329642 0.0 
-0.54475 2.15572 0.0 
-0.288592 0.289433 0.0 
-1.43199 2.16349 0.0 
-1.45029 2.25134 0.0 
1.5535 -1.79992 0.0 
-1.06406 1.08381 0.0 
1.72954 1.44966 0.0 
0.582806 0.515814 0.0 
0.582876 -0.679913 0.0 
1.32351 -0.355916 0.0 
-0.47505 0.577092 0.0 
-0.371167 0.227715 0.0 
1.52235 -1.8529 0.0 
-0.429822 -0.244811 0.0 
-0.53237 -0.24648 0.0 
-0.393983 -0.210364 0.0 
0.652895 0.317361 0.0 
1.55812 -1.70765 0.0 
1.63021 0.325622 0.0 
0.442731 0.358729 0.0 
1.22925 -1.85192 0.0 
1.43517 -1.79082 0.0 
1.39317 -1.6984 0.0 
1.62965 0.295952 0.0 
0.905462 0.793465 0.0 
1.04036 -1.64811 0.0 
2.1131 -1.72466 0.0 
-0.743911 0.369492 0.0 
1.14427 -1.99314 0.0 
1.26033 -2.0209 0.0 
-1.70955 2.07308 0.0 
0.910023 -1.62976 0.0 
-0.313059 -0.0954838 0.0 
-1.77334 2.3988 0.0 
-0.311958 -0.24042 0.0 
2.53315 0.325608 0.0 
-0.273728 -0.226719 0.0 
-0.646401 0.379627 0.0 
1.52426 0.616074 0.0 
2.21703 -1.79499 0.0 
2.71108 0.312216 0.0 
0.759924 1.093 0.0 
-1.69271 2.12368 0.0 
0.255794 0.540969 0.0 
0.0534699 0.562158 0.0 
-1.5679 2.22408 0.0 
-1.66906 2.45165 0.0 
-1.51895 2.09449 0.0 
2.16948 0.408238 0.0 
-0.818806 0.680638 0.0 
-0.826868 0.642087 0.0 
0.519855 0.276992 0.0 
-0.716682 1.18602 0.0 
-0.649974 -0.148775 0.0 
0.457368 0.256619 0.0 
0.517407 0.248194 0.0 
0.327129 0.39802 0.0 
0.533249 -0.878832 0.0 
-0.870735 0.634904 0.0 
1.19219 1.07557 0.0 
2.35922 0.366028 0.0 
-1.66911 3.66723 0.0 
-0.857603 1.54934 0.0 
-0.379189 2.30131 0.0 
-0.941007 1.36523 0.0 
-1.58662 2.49682 0.0 
-0.545297 0.352587 0.0 
0.327944 -0.744683 0.0 
-0.312756 0.524741 0.0 
-0.107843 0.506233 0.0 
2.13378 -2.36584 0.0 
1.52689 0.686953 0.0 
-0.119983 0.327909 0.0 
1.02161 -1.53072 0.0 
1.51507 0.39695 0.0 
-0.674484 1.02605 0.0 
-0.564724 -0.148435 0.0 
0.409388 0.290913 0.0 
0.252349 0.30842 0.0 
-1.09282 1.45998 0.0 
1.45674 -1.54484 0.0 
-0.266777 0.782169 0.0 
0.91327 -0.874389 0.0 
1.01208 1.13309 0.0 
-0.897136 1.35063 0.0 
-0.846484 0.489353 0.0 
1.47563 0.663768 0.0 
-1.22282 2.05021 0.0 
0.348906 0.416714 0.0 
1.41913 0.964648 0.0 
0.933289 -0.839038 0.0 
-1.85066 1.40221 0.0 
0.142477 1.99435 0.0 
-0.717809 0.341194 0.0 
-2.21177 1.41584 0.0 
0.396571 0.350929 0.0 
1.25171 -1.60721 0.0 
0.736798 0.393502 0.0 
-0.661427 0.19031 0.0 
2.18751 -2.32769 0.0 
-1.00908 1.6747 0.0 
2.21416 -2.07269 0.0 
-0.779194 0.642011 0.0 
-1.02312 1.3939 0.0 
2.08809 -2.24876 0.0 
-5 -4.48794 0.0 
1.61792 -1.46215 0.0 
-0.974627 1.38947 0.0 
1.81166 -2.48446 0.0 
-1.03635 1.47474 0.0 
0.869004 -1.74424 0.0 
0.956579 -1.78598 0.0 
1.07495 0.540689 0.0 
-1.08005 1.37763 0.0 
0.914755 -0.803058 0.0 
0.611759 -0.305322 0.0 
1.70043 -1.41356 0.0 
0.75708 -0.631542 0.0 
1.21215 1.01979 0.0 
-0.586902 0.440014 0.0 
1.9251 -2.56336 0.0 
-1.58261 1.91091 0.0 
-0.746541 1.26087 0.0 
-1.49915 1.13657 0.0 
-1.46675 0.971536 0.0 
-1.05881 0.930935 0.0 
0.71826 0.415078 0.0 
-0.701697 0.526982 0.0 
-1.56194 2.05157 0.0 
1.15988 0.991244 0.0 
1.38676 0.949615 0.0 
-1.61697 2.02689 0.0 
1.13748 -0.357331 0.0 
-1.8456 2.04561 0.0 
0.253686 -0.756334 0.0 
-1.53603 1.86509 0.0 
-1.43465 0.924137 0.0 
-1.00273 1.27416 0.0 
-1.03063 1.5132 0.0 
-1.32483 1.94769 0.0 
-0.965552 1.61445 0.0 
-0.239859 -0.245939 0.0 
-5 3.01776 0.0 
-5 -0.248741 0.0 
0.517491 1.87079 0.0 
-1.18776 1.8875 0.0 
2.27458 0.36201 0.0 
1.9794 0.331487 0.0 
0.503086 0.510306 0.0 
1.26387 -0.370702 0.0 
1.24483 0.550197 0.0 
1.12871 0.979556 0.0 
-1.48659 1.83259 0.0 
1.0672 0.958366 0.0 
-1.16856 1.61214 0.0 
-0.218637 -0.230696 0.0 
-5 1.81431 0.0 
1.37014 1.04658 0.0 
0.0950623 0.557621 0.0 
-1.23613 1.67303 0.0 
0.953731 -0.709843 0.0 
2.07568 -1.85385 0.0 
2.10836 -1.82014 0.0 
-0.994952 1.33552 0.0 
-1.86986 1.52312 0.0 
0.515812 0.447542 0.0 
0.842446 0.992035 0.0 
-1.42353 1.8223 0.0 
2.091 0.354014 0.0 
-0.937663 0.401428 0.0 
-1.69305 1.41997 0.0 
-1.82465 1.55127 0.0 
2.15192 0.384657 0.0 
-1.17972 1.37998 0.0 
-0.718866 -0.0130647 0.0 
-0.927867 0.290435 0.0 
1.56509 0.300406 0.0 
-5 -3.04052 0.0 
9.98027 -7 0.0 
0.176009 0.694641 0.0 
0.597997 -0.559941 0.0 
-0.546583 0.4849 0.0 
0.602022 -0.657834 0.0 
2.17737 0.379672 0.0 
1.89809 0.287017 0.0 
-1.58883 1.35796 0.0 
-1.2284 1.37063 0.0 
-1.43937 1.35342 0.0 
-1.59664 1.47263 0.0 
0.577431 -0.368705 0.0 
1.5263 -1.51093 0.0 
0.479666 0.796509 0.0 
0.894995 1.01463 0.0 
2.22312 0.363016 0.0 
-0.320562 0.726481 0.0 
-1.30188 2.41386 0.0 
0.43802 0.434693 0.0 
-0.761697 0.762024 0.0 
1.45688 -1.49591 0.0 
-0.65072 0.676835 0.0 
1.6097 -1.41509 0.0 
2.25768 0.399237 0.0 
1.85518 0.299709 0.0 
2.14618 0.290757 0.0 
2.25222 0.371677 0.0 
-1.93063 2.91367 0.0 
1.52717 0.319618 0.0 
1.67964 -1.62237 0.0 
1.35962 -0.439169 0.0 
1.63007 -1.54335 0.0 
-5 -0.764504 0.0 
-1.61377 2.62271 0.0 
1.73865 -1.57725 0.0 
-0.908306 1.23669 0.0 
1.60766 0.330292 0.0 
1.82509 -1.63054 0.0 
1.90521 0.312457 0.0 
1.98719 -1.6488 0.0 
-0.528791 0.39225 0.0 
1.94978 -2.39003 0.0 
-0.472559 0.718465 0.0 
-1.28058 2.26572 0.0 
0.881581 -0.556282 0.0 
2.26369 0.42542 0.0 
0.917309 -1.69962 0.0 
0.853954 -1.60945 0.0 
1.30086 -0.404316 0.0 
1.99565 -2.46852 0.0 
1.49445 -1.47573 0.0 
1.68285 0.863315 0.0 
2.03074 -2.37549 0.0 
2.52279 -0.506167 0.0 
2.56049 -1.76899 0.0 
-1.52889 2.56597 0.0 
2.81136 -0.570221 0.0 
1.3688 -1.46095 0.0 
1.29524 -0.373946 0.0 
-0.350504 0.671928 0.0 
-0.590282 0.564035 0.0 
-0.054366 2.16706 0.0 
1.50819 1.22548 0.0 
-0.548222 0.453941 0.0 
2.19936 -2.5207 0.0 
12.2704 -7 0.0 
1.6811 -1.36761 0.0 
-0.449261 0.559535 0.0 
0.537017 -0.527614 0.0 
-0.00733391 0.553304 0.0 
0.494109 -0.356396 0.0 
-0.7939 0.0827441 0.0 
0.39888 0.467333 0.0 
-1.04288 1.34095 0.0 
0.605019 1.02824 0.0 
0.847559 0.374727 0.0 
1.00336 0.618307 0.0 
2.1955 0.399186 0.0 
0.656973 0.401158 0.0 
-0.998431 2.73564 0.0 
[...]
<PointData>
  <DataArray type = "Float64" Name="VitesseP1" NumberOfComponents="3" format="ascii">
1 0 0.0 
1.0895 0 0.0 
1.03343 0 0.0 
1 0 0.0 
0.994654 0.0155203 0.0 
0.996935 0.0109111 0.0 
0.995526 0.0133547 0.0 
1.04244 -0.00306309 0.0 
1.04445 -0.00423127 0.0 
1.05 -0.00367615 0.0 
0.997773 0.0118272 0.0 
0.986893 0.0721463 0.0 
0.99663 0.011237 0.0 
0.996842 0.0120156 0.0 
0.998919 0.0118301 0.0 
0.992803 0.217828 0.0 
1.02004 0.0527827 0.0 
1.04987 -0.0252985 0.0 
0.998844 0.0112586 0.0 
0.995064 0.0142694 0.0 
1.05514 -0.026243 0.0 
0.998852 0.01314 0.0 
1.1608 -0.0247307 0.0 
1.04681 0.0128254 0.0 
1.06399 -0.00098513 0.0 
0.998815 0.0127277 0.0 
0.944728 0.00855917 0.0 
1.06357 -0.0212222 0.0 
0.0641044 0.000231546 0.0 
0.988911 0.030997 0.0 
1.14325 0.0669355 0.0 
1.11059 0.141614 0.0 
0.998846 0.0121603 0.0 
1.03446 -0.01724 0.0 
0.94158 0.0121404 0.0 
1.00536 0.029858 0.0 
0.937149 -0.0513173 0.0 
1.08497 -0.000713176 0.0 
1.05687 0.00972108 0.0 
1.05464 -0.0147231 0.0 
1.05756 -0.0041634 0.0 
0.927297 0.151351 0.0 
1.07551 -0.010131 0.0 
1.12666 0.0028475 0.0 
1.0685 0.0078227 0.0 
1.06409 -0.0129508 0.0 
1.0633 0.0351789 0.0 
1.05782 0.0252575 0.0 
1.2005 0.0265674 0.0 
0.939768 0.0354274 0.0 
1.04118 -0.00302655 0.0 
1.00247 0.0120581 0.0 
0.999788 0.0172341 0.0 
1.04063 -0.00463979 0.0 
1.03831 0.24284 0.0 
0.0335751 0.00982573 0.0 
1.04415 -0.00202486 0.0 
1.00269 0.0124511 0.0 
0.999077 0.0153639 0.0 
1.16657 -0.00645184 0.0 
0.157595 -0.00574372 0.0 
1.00235 0.0127299 0.0 
1.09505 0.0618381 0.0 
1.1235 0.120057 0.0 
0.571183 0.000240797 0.0 
1.06119 -0.0261378 0.0 
1.07691 -0.00475826 0.0 
0.557706 0.134678 0.0 
0.863103 0.0852736 0.0 
1.18629 -0.0106314 0.0 
1.20245 -0.0364426 0.0 
1.06739 -0.0105715 0.0 
0.999025 0.0138496 0.0 
1 0 0.0 
0.311407 -0.0187106 0.0 
1.00212 0.0123158 0.0 
0.968252 0.0104252 0.0 
0.999048 0.0142004 0.0 
1.00174 0.0115127 0.0 
1.17464 0.0343263 0.0 
1.03775 0.0243596 0.0 
0.75656 -0.040077 0.0 
0.949491 0.262927 0.0 
1.17406 0.114357 0.0 
0.946363 0.014079 0.0 
0.970058 0.00872691 0.0 
1.00202 0.0119357 0.0 
1.06255 -0.0243282 0.0 
1.14426 0.0966655 0.0 
0.999112 0.0145438 0.0 
1.04414 0.0286679 0.0 
1.04277 -0.0137168 0.0 
1.09732 0.0787386 0.0 
0.935785 0.069799 0.0 
1.12585 0.124207 0.0 
0.999846 0.0126573 0.0 
1.00213 0.0107485 0.0 
0.0323469 -0.151615 0.0 
0.99921 0.0137831 0.0 
1.19222 -0.234227 0.0 
0.944271 0.0228289 0.0 
0.919129 -0.0883687 0.0 
0.91593 -0.0745147 0.0 
1.04709 -0.00314706 0.0 
0.924727 -0.0782496 0.0 
0.967299 -0.00825187 0.0 
1.04247 -0.015683 0.0 
1.06908 -0.00196073 0.0 
1.19734 0.0822394 0.0 
1.038 -0.0152663 0.0 
0.920463 -0.0885973 0.0 
0.95502 -0.00376075 0.0 
0.0975021 0.00333966 0.0 
1.20371 0.0334037 0.0 
1.044 -0.00300142 0.0 
1.03645 -0.0171325 0.0 
1.03829 -0.00730113 0.0 
1.04184 -0.010631 0.0 
1.03563 -0.0111044 0.0 
1.03268 -0.0161075 0.0 
1.16471 0.183653 0.0 
1.03926 -0.00553962 0.0 
0.877669 0.125803 0.0 
0.999081 0.0206768 0.0 
1.03534 -0.019703 0.0 
1.04118 0.00594602 0.0 
1.03763 -0.0220493 0.0 
1.19685 0.0897897 0.0 
1.06126 -0.0136075 0.0 
1.00003 0.0178507 0.0 
1.03928 -0.00762532 0.0 
1.02995 0.0460748 0.0 
1.0007 0.013681 0.0 
1.0372 -0.0197046 0.0 
1.05913 -0.00961801 0.0 
1.08818 0.188667 0.0 
1.06899 -0.0725447 0.0 
0.16987 -0.00196255 0.0 
1.05427 0.0238516 0.0 
0.458471 -0.038857 0.0 
0.405053 -0.0150148 0.0 
0.978171 0.19624 0.0 
0.0689321 -0.00330828 0.0 
1.03806 -0.0130813 0.0 
1.03134 -0.160281 0.0 
1.05092 0.0504666 0.0 
1.14011 0.119979 0.0 
0.998793 0.0193052 0.0 
0.0808782 0.00526547 0.0 
0.99895 0.0183898 0.0 
0.411686 -0.0165428 0.0 
0.998767 0.014465 0.0 
1.04605 0.0285156 0.0 
0.985315 0.0242976 0.0 
0.973633 0.0341011 0.0 
1.05621 0.039542 0.0 
0.998601 0.0156986 0.0 
0.92311 -0.0795075 0.0 
0.984316 0.0207411 0.0 
1.06734 0.0216805 0.0 
0.981769 0.0251595 0.0 
1.03332 0.0351521 0.0 
1.04072 -0.170786 0.0 
0.99888 0.0159857 0.0 
1.05902 -0.00563 0.0 
0.920546 -0.0858753 0.0 
1.03481 0.0689094 0.0 
1.0481 -0.000859241 0.0 
1.06771 -0.00596626 0.0 
0.916769 -0.0817008 0.0 
1.13348 0.111833 0.0 
0.999188 0.0167581 0.0 
0.927985 -0.0726992 0.0 
0.922577 -0.082567 0.0 
0.998635 0.0125493 0.0 
1.04169 -0.00377625 0.0 
0.999439 0.0192058 0.0 
0.939373 0.151285 0.0 
1.13108 0.0483044 0.0 
0.99871 0.0148181 0.0 
0.634906 0.11061 0.0 
1.00605 0.0338937 0.0 
0.86365 0.0452555 0.0 
0.998911 0.019099 0.0 
0.999247 0.0186325 0.0 
1.04534 -0.00512584 0.0 
0.974154 0.0236815 0.0 
1.07141 -0.0385566 0.0 
1.14213 0.199255 0.0 
1.10957 -0.128414 0.0 
0.875116 -0.0298772 0.0 
0.938461 0.0516517 0.0 
0.875316 0.0162359 0.0 
1.04421 -0.00579184 0.0 
0.924343 -0.0730841 0.0 
0.933435 -0.0625679 0.0 
0.919075 -0.0742423 0.0 
0.582267 0.110892 0.0 
1.05038 -0.00589429 0.0 
0.116731 0.0169447 0.0 
1.03791 0.264806 0.0 
1.03953 -0.0161552 0.0 
1.04418 -0.00979821 0.0 
1.04892 -0.0130652 0.0 
0.0958438 0.0251736 0.0 
1.14347 0.103377 0.0 
1.04402 -0.0282431 0.0 
1.04773 0.0180973 0.0 
0.941627 0.00839735 0.0 
1.03398 -0.0160329 0.0 
1.03599 -0.0117789 0.0 
0.99874 0.0155822 0.0 
1.04118 -0.0335485 0.0 
0.898866 -0.0655523 0.0 
0.999043 0.0147098 0.0 
0.910019 -0.0857223 0.0 
0.221671 -0.0167724 0.0 
0.888161 -0.083929 0.0 
0.932842 0.0159035 0.0 
1.2019 0.0453443 0.0 
1.04361 0.0214083 0.0 
0.289082 -0.0394868 0.0 
1.09675 0.0863665 0.0 
0.998556 0.015782 0.0 
1.01955 0.222738 0.0 
0.951969 0.177015 0.0 
0.998882 0.0172127 0.0 
0.999316 0.0156408 0.0 
0.998757 0.0180242 0.0 
0.56461 -0.00891998 0.0 
0.967836 0.0248561 0.0 
0.96554 0.0223734 0.0 
0.414758 0.135851 0.0 
0.976748 0.0405007 0.0 
0.940388 -0.0444458 0.0 
0.301789 0.101602 0.0 
0.37553 0.184558 0.0 
1.06386 0.296622 0.0 
1.06952 -0.102265 0.0 
0.967292 0.0192994 0.0 
1.13875 0.0485689 0.0 
0.301927 -0.0167389 0.0 
1.00081 0.0113211 0.0 
0.990521 0.0332939 0.0 
1.0095 0.0342577 0.0 
0.983959 0.0307115 0.0 
0.999619 0.0163611 0.0 
0.918989 0.0211582 0.0 
1.0592 -0.131034 0.0 
0.919282 0.0754183 0.0 
0.909089 0.131738 0.0 
1.04674 0.0144931 0.0 
1.19334 0.0424281 0.0 
0.830238 0.116555 0.0 
1.05568 -0.0330088 0.0 
0.565546 0.02156 0.0 
0.975953 0.0431555 0.0 
0.932798 -0.0503357 0.0 
0.702514 0.194639 0.0 
0.899703 0.338891 0.0 
0.987414 0.0259351 0.0 
1.06554 -0.0126845 0.0 
0.967573 0.085906 0.0 
1.11345 -0.0758353 0.0 
1.11172 0.0615213 0.0 
0.983349 0.0323538 0.0 
0.956444 0.011894 0.0 
1.19388 0.0475639 0.0 
0.999189 0.0226629 0.0 
1.07812 0.283638 0.0 
1.16749 0.03587 0.0 
1.12395 -0.0768355 0.0 
0.994127 0.00993351 0.0 
1.01837 0.0443973 0.0 
0.937648 0.00729221 0.0 
0.997247 0.00828706 0.0 
1.01896 0.284123 0.0 
1.05506 -0.0208897 0.0 
1.00165 0.151142 0.0 
0.925355 -0.00674425 0.0 
1.03665 0.0332664 0.0 
0.992921 0.0283527 0.0 
1.03718 0.0180634 0.0 
0.962967 0.0255549 0.0 
0.985165 0.0279281 0.0 
1.03697 0.00886406 0.0 
1 0 0.0 
1.06846 -0.00535472 0.0 
0.984897 0.0295649 0.0 
1.04635 -0.000120472 0.0 
0.987712 0.0277032 0.0 
1.03166 -0.0306931 0.0 
1.03382 -0.0268084 0.0 
1.19407 0.0989814 0.0 
0.984953 0.0259732 0.0 
1.12967 -0.0814542 0.0 
0.914585 -0.146367 0.0 
1.06698 -0.00112915 0.0 
1.12839 -0.114131 0.0 
1.14756 0.0509834 0.0 
0.931577 0.0271283 0.0 
1.03715 0.00194443 0.0 
0.995988 0.0169571 0.0 
0.979979 0.0388506 0.0 
0.984171 0.0109384 0.0 
0.995535 0.0102014 0.0 
0.990143 0.0210295 0.0 
1.09081 0.167887 0.0 
0.948797 0.0243635 0.0 
0.998733 0.0174071 0.0 
1.14627 0.0584573 0.0 
1.16613 0.0396415 0.0 
0.998481 0.0166629 0.0 
0.934047 -0.0565541 0.0 
0.999098 0.0139902 0.0 
1.0433 -0.127828 0.0 
0.995091 0.0175452 0.0 
1.00023 0.0108494 0.0 
0.98092 0.0280297 0.0 
0.988957 0.0279371 0.0 
0.996629 0.0210837 0.0 
0.992013 0.0297381 0.0 
0.882538 -0.105721 0.0 
1 0 0.0 
1 0 0.0 
1.0319 0.0454256 0.0 
0.995318 0.0237019 0.0 
0.250935 -0.0142876 0.0 
0.0610862 0.0127219 0.0 
1.11766 0.216576 0.0 
0.963044 -0.0444866 0.0 
1.20148 0.07585 0.0 
1.14485 0.0625556 0.0 
0.994526 0.0182458 0.0 
1.14172 0.0706057 0.0 
0.991913 0.0242633 0.0 
0.948655 -0.164099 0.0 
1 0 0.0 
1.15762 0.0334767 0.0 
0.962295 0.189617 0.0 
0.992844 0.0227821 0.0 
1.14439 -0.0844167 0.0 
1.04379 0.0151907 0.0 
1.04413 0.016887 0.0 
0.983031 0.0286775 0.0 
0.995389 0.0111654 0.0 
1.12922 0.231872 0.0 
1.11897 0.0901222 0.0 
0.99428 0.0192861 0.0 
0.167817 -0.00217423 0.0 
0.958672 0.00101636 0.0 
0.99217 0.0119531 0.0 
0.995318 0.011869 0.0 
0.378455 -0.00655133 0.0 
0.985658 0.0229194 0.0 
0.948699 -0.0293908 0.0 
0.95382 -0.00696476 0.0 
0.0995544 -0.0107919 0.0 
1 0 0.0 
1.06857 0 0.0 
1.00843 0.165706 0.0 
1.12042 -0.145605 0.0 
0.932336 0.0355946 0.0 
1.11352 -0.129708 0.0 
0.341353 -0.00838787 0.0 
0.0777915 -0.000413683 0.0 
0.989731 0.0126762 0.0 
0.985787 0.0214477 0.0 
0.987551 0.0157881 0.0 
0.991739 0.0140893 0.0 
1.10954 -0.173127 0.0 
1.06747 -0.00968983 0.0 
1.08046 0.14646 0.0 
1.12189 0.0830359 0.0 
0.244596 -0.00993556 0.0 
0.957093 0.0788025 0.0 
1.00054 0.0198998 0.0 
1.11206 0.25681 0.0 
0.972485 0.0322418 0.0 
1.06671 -0.0135801 0.0 
0.959571 0.0375735 0.0 
1.06648 -0.00631581 0.0 
0.49689 -0.0174727 0.0 
0.0789667 0.00820705 0.0 
0.0573119 0.0151427 0.0 
0.300697 -0.0141417 0.0 
0.999816 0.0120974 0.0 
0.0860088 0.00136617 0.0 
1.05968 -0.00112186 0.0 
1.16292 -0.0415782 0.0 
1.06769 -0.00410344 0.0 
1 0 0.0 
0.999736 0.0156769 0.0 
1.06564 0.00165498 0.0 
0.979323 0.0315971 0.0 
0.104157 0.00731266 0.0 
1.05935 0.0058516 0.0 
0.0764174 0.00128543 0.0 
1.05655 0.0133827 0.0 
0.92068 0.0278202 0.0 
1.04273 0.000921164 0.0 
0.957687 0.057942 0.0 
0.999919 0.0208802 0.0 
1.19578 -0.109268 0.0 
0.694989 -0.0181672 0.0 
1.03579 -0.0306792 0.0 
1.04168 -0.0361332 0.0 
1.07182 -0.0436165 0.0 
1.0554 0.010108 0.0 
1.06726 -0.0119063 0.0 
1.18898 0.0205304 0.0 
1.04205 0.0144129 0.0 
1.24464 0.0853512 0.0 
1.03503 0.0306045 0.0 
0.999938 0.0167079 0.0 
1.17345 0.108523 0.0 
1.06479 -0.0187531 0.0 
0.976103 -0.0445789 0.0 
0.948154 0.0737913 0.0 
0.944535 0.0370775 0.0 
1.0142 0.0408849 0.0 
1.13434 -0.00225043 0.0 
0.929241 0.032456 0.0 
1.00692 -0.00601051 0.0 
1.06598 0 0.0 
1.0636 -0.00247532 0.0 
0.934197 0.0541413 0.0 
1.14 -0.16321 0.0 
0.936178 0.160261 0.0 
1.10394 -0.194662 0.0 
0.952778 -0.0201644 0.0 
1.08839 0.250652 0.0 
0.983489 0.026994 0.0 
1.08813 0.103983 0.0 
0.791634 0.101224 0.0 
1.17665 0.105431 0.0 
0.495637 -0.0116751 0.0 
1.07723 0.186083 0.0 
1.00395 0.0209543 0.0 
1.05625 0.0162234 0.0 
1.04287 0.00948682 0.0 
1.04762 -0.000147437 0.0 
1.04616 0.00094035 0.0 
0.078224 0.0115843 0.0 
1.04193 0.00280639 0.0 
-0.0180152 0.0228002 0.0 
1.0687 -0.0414668 0.0 
1.00416 0.0343858 0.0 
1.0445 0.01014 0.0 
1 0 0.0 
0.983469 0.0258392 0.0 
1.19462 0.094847 0.0 
0.778192 -0.03958 0.0 
0.99959 0.0151264 0.0 
0.992048 0.0384213 0.0 
1.04989 0.0109959 0.0 
1.05473 0.00612675 0.0 
0.940412 0.188949 0.0 
0.782348 0.130472 0.0 
1.00431 0.0180685 0.0 
1.14996 0.13072 0.0 
1.00049 0.243227 0.0 
0.999106 0.0118067 0.0 
0.986173 0.0287661 0.0 
1.05124 0.00198494 0.0 
0.938359 0.124476 0.0 
0.187849 0.0127248 0.0 
1.05024 0.00412893 0.0 
0.174315 0.09927 0.0 
1.05046 -0.000124339 0.0 
1.02883 -0.018126 0.0 
1.0165 0.0460057 0.0 
1.1261 -0.0474491 0.0 
1.04705 0.00306147 0.0 
0.957304 -0.00636063 0.0 
0.350932 0.0131311 0.0 
1.06343 -0.0221706 0.0 
0.946886 -0.0015698 0.0 
0.999792 0.0148242 0.0 
1.06099 -0.0271111 0.0 
0.942183 0.0655128 0.0 
1.19754 -0.0441184 0.0 
0.281236 -0.0152875 0.0 
0.62229 -0.0221059 0.0 
0.941415 -0.00474115 0.0 
0.96519 0.272346 0.0 
0.251987 0.0479562 0.0 
0.997515 0.315931 0.0 
0.953149 -0.0117528 0.0 
1.07934 -0.042231 0.0 
0.724935 -0.00329908 0.0 
0.357981 0.11646 0.0 
1.10308 0.0694575 0.0 
0.998715 0.01191 0.0 
0.578163 -0.00146851 0.0 
0.169808 0.0344316 0.0 
0.914815 -0.043452 0.0 
0.778149 -0.0271062 0.0 
1.03129 0.046634 0.0 
0.99879 0.0115082 0.0 
1.02675 -0.0975521 0.0 
1.11813 -0.033112 0.0 
1.1753 0.0228776 0.0 
0.0781902 0.00183441 0.0 
0.936664 -0.0576296 0.0 
1.03418 0.0429837 0.0 
1.0674 -0.00749351 0.0 
0.938401 -0.00911938 0.0 
0.0751041 0.00617522 0.0 
0.998813 0.0124192 0.0 
1.17388 0.0277845 0.0 
1.05934 -0.0263762 0.0 
0.964392 0.21602 0.0 
1.05216 0.0169363 0.0 
1.06887 0.000876161 0.0 
1.06893 0.00569337 0.0 
0.954831 0.0373473 0.0 
1.0613 -0.0241296 0.0 
0.998938 0.0135826 0.0 
0.952512 0.00689224 0.0 
1.14184 -0.0320658 0.0 
1.05528 0.0210988 0.0 
0.989453 0.00710852 0.0 
0.953696 0.0151336 0.0 
0.998977 0.0137655 0.0 
1.05892 0.00586547 0.0 
1.042 -0.00456952 0.0 
1.0611 -0.021363 0.0 
0.990612 0.00873786 0.0 
1.02173 0.0467852 0.0 
0.998906 0.0130326 0.0 
1.04517 -0.0260154 0.0 
1.06612 0.0200248 0.0 
0.0503598 0.0146349 0.0 
0.0585719 0.0109623 0.0 
1.06917 0.0159399 0.0 
0.905694 -0.0564849 0.0 
0.892952 -0.0471385 0.0 
0.881962 0.120229 0.0 
0.999412 0.0137067 0.0 
0.998874 0.0136843 0.0 
0.963069 -0.0133071 0.0 
0.965218 -0.00213357 0.0 
1.03442 0.0270822 0.0 
0.96438 0.234913 0.0 
1.06795 0.15181 0.0 
1.03043 -0.044021 0.0 
0.0616132 0.000514438 0.0 
1.16213 0.0230096 0.0 
1.09461 0.142798 0.0 
0.998735 0.0132117 0.0 
1.016 0.0363923 0.0 
1.11286 -0.00824249 0.0 
0.982988 0.0206963 0.0 
0.934855 0.046275 0.0 
1.03087 -0.0287298 0.0 
0.973611 0.0371207 0.0 
0.941673 0.10886 0.0 
0.934544 0.0587954 0.0 
0.822321 -0.0376437 0.0 
0.963116 0.00693244 0.0 
0.792798 -0.0474997 0.0 
1.001 0.017849 0.0 
1.0318 0.0419495 0.0 
0.954098 -0.0103391 0.0 
0.961813 -0.00118122 0.0 
0.922993 0.0340801 0.0 
1.10183 0.249051 0.0 
0.972534 0.00588803 0.0 
0.942945 0.291928 0.0 
0.945726 0.0326087 0.0 
0.975834 0.226426 0.0 
0.850448 0.28612 0.0 
0.99525 0.00732416 0.0 
1.0008 0 0.0 
0.998842 0.0118933 0.0 
0.977446 0.00136482 0.0 
0.895407 0.15399 0.0 
0.134957 0.00867395 0.0 
1.01084 0.0425068 0.0 
0.980923 0.00694727 0.0 
0.999417 0.0122843 0.0 
0.916157 -0.0718826 0.0 
0.917018 0.0328841 0.0 
1.19931 -0.0326488 0.0 
0.998727 0.01216 0.0 
0.970197 0.0790584 0.0 
0.756649 -0.075697 0.0 
1.03362 -0.0227892 0.0 
0.936609 0.0635241 0.0 
0.995355 0.0159182 0.0 
0.944755 0.0273752 0.0 
0.991187 0.0197243 0.0 
0.0803361 0.0120014 0.0 
0.749249 -0.0657591 0.0 
1.04391 -0.00233792 0.0 
1.15364 0.085254 0.0 
1.14612 -0.0295166 0.0 
0.997736 0.0104775 0.0 
0.982381 0.0183136 0.0 
1.00515 0.20225 0.0 
1.11509 0.157689 0.0 
0.584086 0.0956295 0.0 
0.951728 0.189124 0.0 
0.981762 0.0186818 0.0 
0.302714 -0.0246303 0.0 
0.982764 0.0215755 0.0 
0.99734 0.0125035 0.0 
1.00034 0.0192751 0.0 
0.251438 -0.0202694 0.0 
0.208655 -0.0122177 0.0 
0.982001 0.0297793 0.0 
0.338675 0.0581809 0.0 
1.19342 0.0906403 0.0 
1.01007 0.0420205 0.0 
0.981178 0.0320322 0.0 
0.999718 0.0191813 0.0 
0.978101 0.011022 0.0 
0.930719 0.0685898 0.0 
0.976805 0.0255064 0.0 
0.852601 0.285244 0.0 
0.482377 -0.0323402 0.0 
0.231667 -0.0109685 0.0 
0.968425 0.0133172 0.0 
0.974994 0.0119324 0.0 
1.05509 0.204746 0.0 
0.311507 -0.0264951 0.0 
0.940201 0.0208517 0.0 
1.03414 -0.0382327 0.0 
0.983687 0.245895 0.0 
0.999264 0.0133511 0.0 
0.92299 0.0817292 0.0 
0.972647 0.0307203 0.0 
0.930679 0.143271 0.0 
0.960272 0.156523 0.0 
1.00954 0.255317 0.0 
0.714878 -0.029985 0.0 
0.937657 -0.0523818 0.0 
1.11522 0.0609322 0.0 
0.469679 0.0937807 0.0 
0.92679 -0.0596997 0.0 
0.120872 0.00128248 0.0 
0.899399 -0.0129296 0.0 
0.749796 0.136152 0.0 
0.915491 -0.0664614 0.0 
0.922551 -0.0561929 0.0 
0.615203 0.16536 0.0 
1.04673 0.00808228 0.0 
0.941476 0.173406 0.0 
0.880068 -0.00497674 0.0 
0.928671 -0.0537752 0.0 
1.04075 -0.00484023 0.0 
0.340984 0.0415986 0.0 
1.03753 -0.00805722 0.0 
0.866518 0.00735568 0.0 
0.898128 0.217493 0.0 
1.04944 -0.000435625 0.0 
0.907079 -0.0881197 0.0 
0.92229 0.18306 0.0 
0.294636 -0.0270614 0.0 
1.12883 0.0639413 0.0 
1.03537 0.170442 0.0 
0.831646 0.380997 0.0 
1.10294 0.164942 0.0 
1.06481 0.26003 0.0 
0.957619 -0.0391941 0.0 
0.719229 -0.0912105 0.0 
0.977924 0.0330871 0.0 
0.523191 0.0620686 0.0 
0.918777 -0.052693 0.0 
1.04672 0.0680187 0.0 
0.187453 -0.00872164 0.0 
1.04459 0.263784 0.0 
1.05869 0.0420358 0.0 
0.879509 0.105278 0.0 
1.00497 0.0214619 0.0 
0.893219 0.0669028 0.0 
0.142655 2.57711e-05 0.0 
0.853783 0.0764015 0.0 
0.949755 0.0367091 0.0 
0.947625 0.00375723 0.0 
1.17397 -0.0378773 0.0 
0.764055 0.335529 0.0 
0.848149 0.0891277 0.0 
1.02936 0.0722937 0.0 
1.08263 -0.0948778 0.0 
0.921413 -0.0469315 0.0 
1.04054 0.272075 0.0 
0.964971 0.016709 0.0 
0.99592 0.0397454 0.0 
0.910722 0.0769523 0.0 
0.925082 0.112592 0.0 
0.911096 0.035339 0.0 
1.00886 0.0268993 0.0 
0.920311 0.105905 0.0 
0.917994 0.220925 0.0 
0.999194 0.0124559 0.0 
1.09243 -0.0702941 0.0 
0.310484 -0.0296633 0.0 
1.05443 0.251383 0.0 
0.96677 0.203091 0.0 
0.807651 0.151301 0.0 
0.827411 0.038192 0.0 
0.886736 0.0297851 0.0 
1.04274 0.305377 0.0 
0.999581 0.0170556 0.0 
1.12566 0.140014 0.0 
1.03378 0.226527 0.0 
0.886711 -0.0483602 0.0 
0.923286 -0.00201725 0.0 
0.858907 0.158457 0.0 
0.911358 0.0205738 0.0 
0.885608 0.0147979 0.0 
0.932666 -0.0461069 0.0 
0.93475 0.207315 0.0 
0.995799 0.0298818 0.0 
0.999571 0.0145991 0.0 
0.118242 0.00251769 0.0 
0.103204 0.00549266 0.0 
0.913316 0.0276811 0.0 
0.52704 0.153817 0.0 
1.0388 -0.00658277 0.0 
0.922024 -0.0164466 0.0 
0.978144 -0.00111514 0.0 
0.903085 0.0764319 0.0 
0.842307 0.00667637 0.0 
1.0824 -0.0667 0.0 
0.955325 0.00784531 0.0 
0.975695 0.00894604 0.0 
1.08488 0.267898 0.0 
0.233043 -0.0145249 0.0 
0.931201 0.300376 0.0 
0.973182 0.00249801 0.0 
0.989286 0.0536654 0.0 
1.06947 -0.229121 0.0 
0.969179 0.00453953 0.0 
0.961959 0.0124059 0.0 
0.997744 0.0130506 0.0 
1.03799 -0.0077831 0.0 
0.798927 0.108659 0.0 
0.90488 0.0183202 0.0 
0.990999 0.0052628 0.0 
1.02918 -0.18254 0.0 
0.995232 0.0152052 0.0 
0.935837 0.0239963 0.0 
0.811595 0.168371 0.0 
0.950299 -0.00859366 0.0 
0.998139 0.0099673 0.0 
0.939074 0.00461047 0.0 
0.189017 0.128628 0.0 
0.944166 -0.00849892 0.0 
1.06543 -0.00881917 0.0 
0.954535 0.288822 0.0 
0.0706631 0.00927698 0.0 
1.10209 0.255207 0.0 
0.988102 0.0146875 0.0 
0.919689 -0.126949 0.0 
0.969071 0.00171201 0.0 
0.959878 0.00900485 0.0 
0.960124 0.00441265 0.0 
0.544255 0.134953 0.0 
0.962153 0.00173546 0.0 
0.956276 -0.0136671 0.0 
0.652744 0.184382 0.0 
1.03471 -0.0115996 0.0 
1.03523 0.0444314 0.0 
0.997638 0.266126 0.0 
0.981217 0.0205864 0.0 
0.975723 0.0287585 0.0 
0.964907 0.0038052 0.0 
0.8939 0.0128527 0.0 
0.959215 -0.0179549 0.0 
0.119163 0.000771802 0.0 
0.968931 -0.000348327 0.0 
1.06062 0.0178713 0.0 
0.876778 0.168025 0.0 
0.996519 0.0118554 0.0 
1.06583 0.028412 0.0 
1.05829 0.0947072 0.0 
1.10279 -0.0703946 0.0 
1.09737 0.104695 0.0 
0.976712 -0.00307526 0.0 
0.877442 0.182991 0.0 
0.996678 0.014239 0.0 
0.996985 0.0109458 0.0 
0.890227 -0.0412426 0.0 
0.978926 0.025532 0.0 
1.16463 -0.226776 0.0 
0.670446 0.0150499 0.0 
0.942396 0.0414063 0.0 
1.0181 0.302767 0.0 
0.908806 0.353386 0.0 
0.839654 0.132082 0.0 
1.16068 0.0752896 0.0 
0.154241 0.134146 0.0 
1.019 0.289756 0.0 
1.06716 0.266004 0.0 
1.03959 -0.00492734 0.0 
0.939326 0.0940621 0.0 
0.0495662 0.00764378 0.0 
1.17706 0.147322 0.0 
0.978063 0.0315965 0.0 
0.910572 0.121946 0.0 
1.12765 0.219912 0.0 
0.851999 0.124252 0.0 
-0.0406684 -0.017175 0.0 
0.97914 0.0297304 0.0 
0.925594 0.0734755 0.0 
0.746395 0.140638 0.0 
0.979961 0.0264848 0.0 
0.912391 0.150046 0.0 
0.995925 0.0123283 0.0 
0.903677 0.10136 0.0 
0.97946 0.0276518 0.0 
0.854492 0.0555682 0.0 
0.831567 0.0224337 0.0 
0.904877 0.164135 0.0 
0.99878 0.0111948 0.0 
0.969139 -0.00480887 0.0 
0.980413 0.0248332 0.0 
0.999116 0.0173294 0.0 
0.963018 -0.0048393 0.0 
0.961999 -0.00850254 0.0 
0.966454 -0.00429744 0.0 
0.93863 -0.041487 0.0 
0.92634 0.057968 0.0 
0.926998 0.0879485 0.0 
1.0417 -0.000353678 0.0 
0.989953 0.0316753 0.0 
1.06468 0.029571 0.0 
0.999205 0.0142723 0.0 
1.07856 -0.00557313 0.0 
1.00593 0.0794367 0.0 
0.950041 0.0131508 0.0 
0.977195 0.0268383 0.0 
1.05076 -0.160796 0.0 
1.10234 0.243179 0.0 
1.12542 0.231353 0.0 
0.933714 -0.0322504 0.0 
0.999099 0.0138071 0.0 
0.951527 0.0108083 0.0 
0.996423 0.0133992 0.0 
0.979716 0.00523107 0.0 
1.05602 0.0111815 0.0 
1.04965 -0.171524 0.0 
0.0670626 0.00611756 0.0 