<VTKFile type="UnstructuredGrid" version="0.1" byte_order="LittleEndian">
  <UnstructuredGrid>
    <Piece NumberOfPoints="23363" NumberOfCells="46608">
      <Points>
        <DataArray type = "Float64" NumberOfComponents="3" format="ascii">
-5 -7 0.0 
15.5 -7 0.0 
15.5 7 0.0 
-5 7 0.0 
3.18355 0.169963 0.0 
0.744743 -0.0245507 0.0 
-0.710082 0.3737 0.0 
3.54957 0.925901 0.0 
0.673904 -0.460293 0.0 
0.00357444 0.0170209 0.0 
4.31989 -1.69487 0.0 
2.39705 2.2728 0.0 
-0.895939 -2.86691 0.0 
2.40837 0.46912 0.0 
4.59058 -0.621464 0.0 
2.55179 1.01725 0.0 
4.61399 0.0713575 0.0 
4.24135 -0.223975 0.0 
0.120658 -0.0372114 0.0 
1.53551 -0.916129 0.0 
0.901939 2.91828 0.0 
-0.612495 -0.236684 0.0 
4.99259 -4.54755 0.0 
0.780345 -0.0266691 0.0 
3.45113 0.173009 0.0 
2.42109 -0.214438 0.0 
5.19146 0.585715 0.0 
0.566652 0.0897206 0.0 
-2.04169 2.27506 0.0 
8.37805 0.0277781 0.0 
1.55666 1.53218 0.0 
4.54256 4.34305 0.0 
0.307839 -3.51724 0.0 
2.19809 0.543599 0.0 
0.107351 0.924395 0.0 
-0.60249 0.408637 0.0 
0.162666 0.101807 0.0 
0.818564 0.0186712 0.0 
2.11482 0.243429 0.0 
7.28044 -0.676414 0.0 
4.75694 -0.287149 0.0 
3.18769 0.747325 0.0 
-0.554592 0.912013 0.0 
0.329707 -1.13269 0.0 
6.64097 1.71952 0.0 
2.24937 0.909197 0.0 
0.952447 -0.00545261 0.0 
0.704537 -1.22188 0.0 
-3.0161 0.308062 0.0 
2.83064 -0.121165 0.0 
4.58296 0.80603 0.0 
0.342706 -0.0445613 0.0 
3.53841 -4.17652 0.0 
4.09726 0.29417 0.0 
-2.78976 -0.608246 0.0 
0.245902 0.0445196 0.0 
0.98182 -0.00234488 0.0 
0.312588 -0.045315 0.0 
0.162793 0.0714252 0.0 
-1.16192 2.59577 0.0 
0.947784 -0.00635413 0.0 
15.5 5.74627 0.0 
0.905726 -0.012091 0.0 
2.59426 -1.05095 0.0 
0.913668 0.886882 0.0 
0.373201 0.0634108 0.0 
1.84164 -0.788891 0.0 
0.817571 -0.0182051 0.0 
1.31668 0.686478 0.0 
1.9638 0.17137 0.0 
-2.49719 3.29173 0.0 
-0.334695 -0.59899 0.0 
-1.06701 4.99404 0.0 
0.104646 -0.0359396 0.0 
2.85582 -1.29091 0.0 
-2.46645 1.8403 0.0 
-4.4386 0.211068 0.0 
-0.117446 0.782219 0.0 
6.95684 -2.1689 0.0 
-0.727497 -1.11308 0.0 
5.32983 -2.66539 0.0 
-0.735268 0.973456 0.0 
-2.24077 0.751408 0.0 
4.69545 -1.4105 0.0 
5.2637 0.829009 0.0 
0.474289 0.0410955 0.0 
4.18635 0.578246 0.0 
0.881069 0.019758 0.0 
4.22485 0.361379 0.0 
1.74304 -1.16672 0.0 
-1.99337 -6.54339 0.0 
-0.897961 -1.21087 0.0 
6.03814 0.519242 0.0 
4.46587 -0.160323 0.0 
3.42216 0.888527 0.0 
3.00792 -0.733911 0.0 
0.431538 -0.0463053 0.0 
1.95618 -0.900845 0.0 
0.813531 0.01865 0.0 
1.7464 -0.313211 0.0 
1.02723 -0.0221506 0.0 
0.154229 -0.210612 0.0 
4.95981 1.28089 0.0 
3.29459 1.04115 0.0 
1.20256 -1.51503 0.0 
0.611521 -0.0348414 0.0 
1.6323 0.444164 0.0 
0.105602 -0.0356587 0.0 
2.37201 0.562293 0.0 
5.72095 0.794109 0.0 
0.434749 -0.0654113 0.0 
0.404053 -0.0510612 0.0 
3.87079 -0.00723506 0.0 
0.920555 -0.00873148 0.0 
0.611398 -0.0418877 0.0 
6.54424 2.96551 0.0 
0.298395 0.045412 0.0 
0.381016 -0.139498 0.0 
-0.0127712 -0.363675 0.0 
-1.11211 0.450976 0.0 
5.70107 0.103025 0.0 
2.56821 1.18202 0.0 
1.94198 0.759367 0.0 
-0.767916 -1.36647 0.0 
6.26558 3.27619 0.0 
0.393758 0.0433312 0.0 
1.03918 -3.7326 0.0 
2.98196 -2.19664 0.0 
-0.723337 0.659752 0.0 
0.769751 0.0257312 0.0 
-0.0432695 -0.11786 0.0 
1.77324 0.00772123 0.0 
0.0285682 0.173596 0.0 
3.56944 0.143615 0.0 
5.16625 -0.902404 0.0 
0.425461 -0.0460145 0.0 
1.38609 -0.847178 0.0 
0.520909 -0.0389841 0.0 
4.55484 0.54821 0.0 
1.4616 0.543244 0.0 
-1.51227 -3.24022 0.0 
0.195347 -0.0434187 0.0 
0.773677 0.0218742 0.0 
2.8431 0.557929 0.0 
0.716175 0.028287 0.0 
2.39889 -2.99953 0.0 
-0.51449 -0.450123 0.0 
0.258525 0.0466297 0.0 
4.25711 0.659543 0.0 
-2.40935 0.24635 0.0 
0.709715 0.026853 0.0 
0.461961 -0.0451465 0.0 
4.33861 1.14821 0.0 
1.20554 -2.71579 0.0 
4.74695 -0.0834236 0.0 
-1.25611 -2.04971 0.0 
0.105046 -0.035758 0.0 
4.33429 0.977449 0.0 
5.09236 -1.028 0.0 
3.17292 -0.964184 0.0 
0.783705 -0.0213671 0.0 
-0.696512 0.213324 0.0 
0.694681 -1.0517 0.0 
2.0986 0.950783 0.0 
-0.144149 -1.14963 0.0 
5.98059 -0.0630815 0.0 
0.272064 0.0469145 0.0 
7.58514 -1.24129 0.0 
0.163388 0.0413523 0.0 
1.3889 0.372075 0.0 
4.27843 -0.00377209 0.0 
0.744189 -0.0244378 0.0 
2.79687 -2.66962 0.0 
0.653549 0.0309269 0.0 
2.68167 3.30593 0.0 
0.794288 0.0215449 0.0 
-2.47477 1.26123 0.0 
5.09925 -1.86304 0.0 
-0.466599 0.560973 0.0 
-0.330097 -1.0788 0.0 
5.7239 -0.911637 0.0 
3.61674 6.08518 0.0 
0.362692 0.525858 0.0 
3.19883 0.102832 0.0 
0.22945 2.81099 0.0 
0.641973 0.0318816 0.0 
7.10696 -3.51522 0.0 
1.0976 -0.906533 0.0 
-0.983346 0.0960112 0.0 
3.69587 0.974536 0.0 
0.43894 0.0460078 0.0 
5.1257 0.97087 0.0 
-0.622535 0.30182 0.0 
-1.56092 3.32284 0.0 
5.43119 -0.717194 0.0 
5.33983 1.75066 0.0 
-1.42733 7 0.0 
0.910732 -0.0118628 0.0 
2.4817 0.280534 0.0 
3.13538 2.12501 0.0 
0.361087 0.0547235 0.0 
5.82914 1.78028 0.0 
-0.821698 0.503315 0.0 
0.290106 -0.049867 0.0 
4.75976 3.94984 0.0 
1.82454 0.70259 0.0 
-1.63339 5.68418 0.0 
0.566444 0.0366038 0.0 
2.31934 -1.53538 0.0 
0.25718 0.0458892 0.0 
2.57004 -1.3673 0.0 
3.63568 -1.99783 0.0 
0.530012 -0.039092 0.0 
0.649549 -0.0431496 0.0 
4.32836 0.47074 0.0 
0.655561 0.817909 0.0 
3.18094 -0.81054 0.0 
-0.426085 0.78836 0.0 
0.863499 0.0220645 0.0 
3.9173 -2.64737 0.0 
1.81616 0.825568 0.0 
5.21321 -0.3675 0.0 
5.05131 -2.3443 0.0 
2.76676 -0.692798 0.0 
0.523287 -0.0392515 0.0 
-0.334864 -1.48154 0.0 
-0.686158 0.502283 0.0 
1.92641 0.64398 0.0 
0.731698 -0.0325633 0.0 
0.856785 -0.0286247 0.0 
7.15765 -0.0187663 0.0 
0.379531 -0.0439182 0.0 
4.50834 1.24285 0.0 
5.04618 1.12251 0.0 
-2.75505 1.07417 0.0 
-0.376301 0.599203 0.0 
3.44752 -0.852391 0.0 
0.698623 0.0279606 0.0 
0.121194 0.0455902 0.0 
5.716 0.456114 0.0 
0.808472 1.96142 0.0 
6.81304 0.755503 0.0 
-0.0582398 -0.866136 0.0 
7.71188 -2.96547 0.0 
-3.53705 1.25281 0.0 
0.465882 -0.0460405 0.0 
2.68677 1.09402 0.0 
0.248043 0.0606486 0.0 
5.1925 -0.455267 0.0 
4.24047 0.492028 0.0 
0.110835 -0.0368906 0.0 
-4.31281 0.610337 0.0 
5.32607 -0.517305 0.0 
0.295832 0.0451375 0.0 
1.6222 -1.05255 0.0 
4.61321 0.946391 0.0 
1.26604 -1.76966 0.0 
13.473 0.899641 0.0 
0.616902 -0.0332103 0.0 
0.809136 -0.975967 0.0 
4.51167 -3.90486 0.0 
3.31578 -0.147805 0.0 
-1.70514 0.742376 0.0 
0.140221 -0.0404193 0.0 
-2.86794 -1.50104 0.0 
-3.9925 0.39875 0.0 
0.688043 -0.0283487 0.0 
0.41163 0.0431436 0.0 
0.070736 0.0310864 0.0 
0.60708 -0.0352384 0.0 
5.6406 -0.275737 0.0 
6.11037 -2.86662 0.0 
-1.04888 -2.63871 0.0 
-1.14969 -3.07497 0.0 
1.73323 -4.24468 0.0 
-1.4039 -0.0451297 0.0 
6.09745 -0.766074 0.0 
0.273565 -0.0568202 0.0 
-1.09339 -0.536899 0.0 
0.00345425 -2.89962 0.0 
6.81416 0.1292 0.0 
0.517155 -0.0432512 0.0 
6.01276 1.28167 0.0 
13.9816 4.77172 0.0 
0.28396 -0.0453167 0.0 
2.88058 -0.741008 0.0 
7.84664 -1.16271 0.0 
2.15075 -1.20416 0.0 
3.54818 -1.20239 0.0 
0.473618 -0.0401675 0.0 
14.87 -0.029199 0.0 
1.00775 4.0316 0.0 
0.974025 -0.0409629 0.0 
8.22526 -4.8738 0.0 
0.887209 -0.544502 0.0 
0.998481 -0.832441 0.0 
0.568923 0.0364122 0.0 
0.727782 0.0259556 0.0 
5.48092 1.38943 0.0 
-1.83845 -0.200487 0.0 
4.07801 1.29724 0.0 
2.08625 -0.925211 0.0 
0.0620809 -0.817764 0.0 
5.27023 -0.626315 0.0 
0.912606 -0.011047 0.0 
5.49899 -0.273558 0.0 
3.90043 4.10085 0.0 
0.0225377 3.95803 0.0 
5.21047 -0.750396 0.0 
-0.521178 -1.1139 0.0 
-4.44721 3.72648 0.0 
1.36924 0.584406 0.0 
-0.253096 1.92927 0.0 
3.93985 2.09146 0.0 
0.774692 0.0307712 0.0 
-2.02904 3.58675 0.0 
3.2496 -2.26857 0.0 
5.32949 -0.773983 0.0 
2.23867 1.77032 0.0 
1.10652 -1.9489 0.0 
0.312913 -0.0849242 0.0 
0.0172552 -0.0162453 0.0 
9.45979 0.781166 0.0 
6.74235 6.39225 0.0 
4.68058 2.94067 0.0 
15.5 -1.66279 0.0 
3.62151 -1.55948 0.0 
0.397477 0.0436231 0.0 
0.657063 -2.70441 0.0 
-1.28443 -4.02214 0.0 
2.83372 -3.64336 0.0 
5.09615 0.78562 0.0 
0.555374 0.97002 0.0 
4.12345 -0.30452 0.0 
1.90219 2.04198 0.0 
6.28646 5.2043 0.0 
0.144398 2.14983 0.0 
0.956097 0.00557641 0.0 
5.95507 -1.30786 0.0 
5.28508 -1.41701 0.0 
0.432992 -1.28321 0.0 
0.23712 -0.0595424 0.0 
5.60263 1.58075 0.0 
0.664231 0.0303894 0.0 
0.386978 2.29806 0.0 
5.26558 1.13033 0.0 
-3.13271 -2.17991 0.0 
2.1442 -1.39367 0.0 
-0.206047 6.45275 0.0 
-4.12487 -2.83898 0.0 
5.83445 0.975451 0.0 
4.31721 4.04332 0.0 
3.07279 0.575238 0.0 
0.608711 -0.0348912 0.0 
4.43117 3.64632 0.0 
3.19622 -1.06892 0.0 
1.75502 -1.91759 0.0 
8.9956 3.97791 0.0 
11.4173 3.59115 0.0 
0.696639 0.0581677 0.0 
1.37197 -0.474784 0.0 
4.33724 -6.58225 0.0 
-1.74472 1.55061 0.0 
1.56045 1.14697 0.0 
13.9459 -3.10045 0.0 
-1.52858 0.284609 0.0 
0.106452 0.0364003 0.0 
-0.919681 0.994772 0.0 
3.52309 1.62761 0.0 
3.72888 -0.862891 0.0 
1.42118 -3.00108 0.0 
-1.07301 -6.0599 0.0 
1.40469 -0.738384 0.0 
4.95271 -3.62788 0.0 
5.40941 0.71042 0.0 
0.0146518 -0.0153777 0.0 
2.39027 0.982076 0.0 
-3.0083 2.64591 0.0 
1.14279 -1.05216 0.0 
1.71616 -3.85788 0.0 
0.980652 -1.61171 0.0 
1.25891 -2.13878 0.0 
-1.36365 -0.87363 0.0 
0.610031 -0.0346186 0.0 
-0.557188 -0.335255 0.0 
0.541448 -2.2265 0.0 
-0.545654 0.489578 0.0 
7.26064 2.03351 0.0 
0.604301 1.12738 0.0 
5.57108 -0.830566 0.0 
2.68815 -1.19547 0.0 
6.2361 -1.41474 0.0 
1.66026 2.81597 0.0 
-0.477172 -3.29624 0.0 
10.0245 -3.30748 0.0 
5.02743 0.40075 0.0 
0.0402966 -0.0250356 0.0 
0.107464 -0.044637 0.0 
14.2747 6.40505 0.0 
3.98603 -3.11015 0.0 
-3.89751 -1.54046 0.0 
-1.64818 0.0546894 0.0 
-1.42996 0.459698 0.0 
2.46657 -2.69838 0.0 
0.0143401 -0.0718848 0.0 
0.0999988 0.0356153 0.0 
0.774483 0.0260124 0.0 
-0.979663 -0.741265 0.0 
-3.94398 -5.64295 0.0 
5.3254 1.99652 0.0 
0.351769 -1.60556 0.0 
8.56083 -0.889949 0.0 
1.95068 -1.23123 0.0 
-3.91942 4.62704 0.0 
0.247881 -0.0952808 0.0 
-1.06096 -1.19217 0.0 
4.79818 -5.95027 0.0 
-3.24218 -1.28865 0.0 
0.663356 0.0302614 0.0 
1.24529 -0.90962 0.0 
2.7168 0.0441524 0.0 
-0.782758 -0.876825 0.0 
5.78736 -1.72714 0.0 
2.23835 1.05059 0.0 
-0.788002 4.00714 0.0 
0.203486 0.0442897 0.0 
2.90626 -1.72723 0.0 
0.709537 0.0263426 0.0 
5.97351 -3.18221 0.0 
2.38312 -0.608132 0.0 
[...]
<PointData>
  <DataArray type = "Float64" Name="VitesseP1" NumberOfComponents="3" format="ascii">
1 0 0.0 
1.00001 0 0.0 
1.00002 0 0.0 
1 0 0.0 
1.00002 -0.000627566 0.0 
0.0065966 0.00037974 0.0 
0.992004 0.00697111 0.0 
1.00123 -0.00110031 0.0 
1.02667 0.0132026 0.0 
0.71569 0.397535 0.0 
1.00112 0.00106963 0.0 
1.00199 -0.000860368 0.0 
1.00134 -0.00150154 0.0 
1.00011 -0.0017586 0.0 
1.00137 0.00137379 0.0 
1.00113 -0.00178986 0.0 
0.955147 -0.00131536 0.0 
1.00133 0.00111107 0.0 
0 0 0.0 
1.00277 0.00522634 0.0 
1.00244 0.000298628 0.0 
0.987953 -0.00690444 0.0 
1.00078 0.000342283 0.0 
0.239577 0.0184555 0.0 
1.00022 -0.000694728 0.0 
0.999878 0.00122166 0.0 
1.0011 -0.00170995 0.0 
1.06989 -0.040105 0.0 
1.0003 0.00147395 0.0 
0.998964 -3.46333e-05 0.0 
1.00369 -0.00216434 0.0 
1.00087 -0.000345933 0.0 
1.00174 -0.000589736 0.0 
0.999945 -0.00245815 0.0 
1.01039 0.00886847 0.0 
0.991782 0.00942555 0.0 
1.09666 0.0855622 0.0 
0.010054 -0.000604833 0.0 
0.998543 -0.00196633 0.0 
0.999715 0.00129013 0.0 
1.00156 0.00157423 0.0 
1.00107 -0.00113125 0.0 
1.00006 0.00845294 0.0 
1.00979 -0.00367732 0.0 
1.00019 -0.00104561 0.0 
1.00105 -0.00243342 0.0 
0 0 0.0 
1.00874 0.000639894 0.0 
0.999437 0.000227427 0.0 
1.01019 0.00069615 0.0 
1.00128 -0.00133022 0.0 
0 0 0.0 
1.0011 0.000276422 0.0 
1.0015 -0.00104084 0.0 
0.999346 -0.000537348 0.0 
0 0 0.0 
1.05068e-09 9.75403e-10 0.0 
0.0147077 0.000115247 0.0 
1.11676 0.0919501 0.0 
1.00109 0.00176083 0.0 
0.0031472 0.000306246 0.0 
1.00002 -1.11332e-05 0.0 
0.0475843 0.00422438 0.0 
1.00124 0.00174145 0.0 
1.01034 -0.00574998 0.0 
1.07049 -0.00770604 0.0 
1.001 0.00409306 0.0 
0 0 0.0 
1.00325 -0.00878326 0.0 
0.997513 -0.00217653 0.0 
1.00029 0.000810244 0.0 
0.998458 -0.0154963 0.0 
1.00063 0.000415505 0.0 
8.62151e-08 -1.01253e-08 0.0 
1.00124 0.00142022 0.0 
0.999931 0.00121965 0.0 
0.999953 3.16807e-05 0.0 
1.00633 0.013657 0.0 
1.00019 0.000821161 0.0 
1.00019 -0.00602199 0.0 
1.00074 0.000814636 0.0 
0.999409 0.00645588 0.0 
0.998962 0.00106862 0.0 
1.00098 0.00120011 0.0 
1.00092 -0.00159669 0.0 
5.64895e-08 -3.7082e-09 0.0 
1.0014 -0.00115982 0.0 
0.284748 -0.0242359 0.0 
1.00147 -0.00115028 0.0 
1.00266 0.00330937 0.0 
1.0003 -7.97643e-05 0.0 
1.0001 -0.00489981 0.0 
0.998855 -0.00177459 0.0 
1.00508 0.00129266 0.0 
1.00121 -0.00111256 0.0 
1.0009 0.00124747 0.0 
0.267095 0.00839337 0.0 
1.00129 0.00342512 0.0 
0 0 0.0 
0.997199 0.00449026 0.0 
0.58039 0.0675984 0.0 
1.05404 -0.0606281 0.0 
1.0009 -0.00127496 0.0 
1.00115 -0.00117302 0.0 
1.00484 0.00193975 0.0 
0.0590961 0.00370623 0.0 
0.99846 -0.00617365 0.0 
0 0 0.0 
1.00021 -0.00196939 0.0 
1.00058 -0.00142524 0.0 
1.07684 0.02197 0.0 
0.575216 0.0129455 0.0 
0.877183 9.82834e-05 0.0 
0 0 0.0 
0.474312 0.0274363 0.0 
1.00041 -0.000659249 0.0 
0.0154778 0.000174748 0.0 
1.08492 -0.000507844 0.0 
1.00911 -0.0399946 0.0 
0.995475 0.00336294 0.0 
0.975628 -0.00647265 0.0 
1.00128 -0.00171028 0.0 
1.00077 -0.0036208 0.0 
1.00105 -0.00482624 0.0 
1.0005 -0.000600637 0.0 
0 0 0.0 
1.00166 -0.000242603 0.0 
1.00158 0.000919819 0.0 
0.996428 0.00776772 0.0 
0.148957 -0.0115365 0.0 
0.952813 -0.0943832 0.0 
0.757065 -0.000785173 0.0 
1.00935 0.0912456 0.0 
1.00597 -0.000676557 0.0 
1.00102 0.00152761 0.0 
0.231322 0.00719112 0.0 
1.00365 0.0065746 0.0 
0.00871672 0.000361201 0.0 
1.00142 -0.00137118 0.0 
1.00012 -0.00838037 0.0 
1.00077 -0.00113955 0.0 
0.0485237 -0.00270125 0.0 
0 0 0.0 
1.00072 -0.00123489 0.0 
0.0799985 -0.00563035 0.0 
1.00175 0.000383775 0.0 
0.992598 -0.0118579 0.0 
0.180245 0.00280822 0.0 
1.00137 -0.00119652 0.0 
0.9988 0.000320223 0.0 
0 0 0.0 
0.252709 0.0095757 0.0 
1.00111 -0.001184 0.0 
1.00266 1.57151e-05 0.0 
0.970432 0.0015287 0.0 
1.00083 -0.00237978 0.0 
0 0 0.0 
1.0012 -0.00120311 0.0 
1.00099 0.00146365 0.0 
1.00115 0.00123232 0.0 
7.87123e-07 5.38404e-08 0.0 
0.98918 0.0048651 0.0 
1.01083 0.00148586 0.0 
1.00127 -0.0027991 0.0 
1.00532 -0.00730909 0.0 
0.975722 0.00357528 0.0 
0.186404 0.00133636 0.0 
0.999593 0.000945902 0.0 
1.68688e-07 2.03059e-08 0.0 
0.996986 -0.0105985 0.0 
0.889729 0.000168811 0.0 
1.04999e-07 7.44491e-09 0.0 
1.00165 0.000639591 0.0 
1.00588e-08 -4.1315e-10 0.0 
1.00153 -0.000309393 0.0 
0.0444423 -0.00296474 0.0 
0.999555 0.00115633 0.0 
1.00086 0.00108706 0.0 
0.995567 0.0127587 0.0 
1.00314 -0.00801737 0.0 
1.00077 0.00146077 0.0 
1.00086 -4.66599e-05 0.0 
1.02944 0.00811693 0.0 
1.00358 -0.0010868 0.0 
1.00243 0.000989177 0.0 
0.00890479 -0.000669589 0.0 
1.00033 0.000497966 0.0 
1.0074 0.00650532 0.0 
0.99267 0.00103804 0.0 
1.00121 -0.00109498 0.0 
0.259886 -0.00842208 0.0 
1.00093 -0.00144871 0.0 
0.989523 0.00783764 0.0 
1.00072 0.00107562 0.0 
1.00095 0.00177227 0.0 
1.00078 -0.00111416 0.0 
1.00038 0 0.0 
0.0551844 0.00530019 0.0 
0.999688 -0.00126428 0.0 
1.00147 -0.000935201 0.0 
0.789655 -0.00759614 0.0 
1.00056 -0.00111168 0.0 
0.994526 0.00628171 0.0 
0.457969 -0.00403203 0.0 
1.00086 -0.000442227 0.0 
1.00057 -0.00431712 0.0 
1.00041 0.000248141 0.0 
0.00945434 -0.000865481 0.0 
1.00188 0.00171208 0.0 
0.105416 0.000992733 0.0 
1.00144 0.0016248 0.0 
1.0013 0.000965832 0.0 
0.0392941 0.00160755 0.0 
0.626733 0.0379886 0.0 
1.00149 -0.00123228 0.0 
1.01526 -0.00290072 0.0 
1.00106 0.00118352 0.0 
1 0.0109801 0.0 
0.325958 -0.0268959 0.0 
1.00119 0.000759466 0.0 
1.00127 -0.00412177 0.0 
1.00123 0.00199111 0.0 
1.00084 0.000911169 0.0 
1.00076 0.00145078 0.0 
0.0290763 0.000648229 0.0 
1.00324 -0.00487092 0.0 
0.993966 0.0081724 0.0 
1.00012 -0.00374094 0.0 
0.367392 0.0262552 0.0 
0.560803 0.044381 0.0 
0.994199 0.000691561 0.0 
0 0 0.0 
1.00105 -0.00118874 0.0 
1.00089 -0.00136642 0.0 
0.999529 0.000844391 0.0 
0.997633 0.0145248 0.0 
1.00117 0.00111385 0.0 
0.00560058 -0.000550985 0.0 
1.02708 0.121124 0.0 
0.997668 -0.00314264 0.0 
1.00435 0.000133013 0.0 
1.00003 -0.000882872 0.0 
1.00772 -0.0114397 0.0 
1.00016 0.000523493 0.0 
0.999861 0.000438789 0.0 
0.328958 0.01249 0.0 
1.00119 -0.00160346 0.0 
1.10434 0.0390232 0.0 
1.00111 0.00185511 0.0 
1.00148 -0.00117974 0.0 
0.0420287 -0.00301641 0.0 
0.999954 9.64107e-05 0.0 
1.00076 0.00225759 0.0 
9.77061e-09 4.35757e-10 0.0 
1.00305 0.00419349 0.0 
1.00117 -0.00130133 0.0 
1.00434 0.00121932 0.0 
0.999959 -2.37706e-05 0.0 
0 0 0.0 
1.01077 0.0035343 0.0 
1.00091 0.000449432 0.0 
1.00402 0.000663819 0.0 
0.99822 0.00195784 0.0 
0.139837 -0.010728 0.0 
0.999769 -0.00089484 0.0 
0.999888 0.000102905 0.0 
0 0 0.0 
0 0 0.0 
0.0410938 0.00574393 0.0 
0.0668801 0.00318875 0.0 
1.00822 -6.26575e-05 0.0 
1.00051 0.00073311 0.0 
1.00122 -0.00174159 0.0 
1.00104 -0.00131668 0.0 
1.00134 -0.000110921 0.0 
0.996004 -0.000270421 0.0 
0.99991 0.00180443 0.0 
0.985396 -0.0220764 0.0 
0.995969 -0.00389871 0.0 
1.00217 -0.0010978 0.0 
0.990956 -0.00216955 0.0 
0.272217 0.0124816 0.0 
1.00034 -0.00135529 0.0 
1.00002 -3.09924e-05 0.0 
0.0171399 0.000315121 0.0 
1.00084 0.00135108 0.0 
0.999624 0.000742529 0.0 
1.00174 0.00236934 0.0 
1.00118 0.00113498 0.0 
0 0 0.0 
0.999978 -2.32265e-06 0.0 
1.00145 0.000243361 0.0 
0.922871 0.0678413 0.0 
1.00027 0.000224801 0.0 
1.01416 0.0148077 0.0 
1.00906 0.0073473 0.0 
0.0102046 -0.000551246 0.0 
0.0146649 -0.00108068 0.0 
1.00068 -0.00130285 0.0 
0.997729 -0.000598615 0.0 
1.00114 -0.00111965 0.0 
1.00119 0.002895 0.0 
1.01095 -0.0116677 0.0 
1.00112 0.00162209 0.0 
0.0340718 0.0031895 0.0 
1.00592 0.0027024 0.0 
1.00103 -0.000329767 0.0 
1.00133 0.000561544 0.0 
1.00095 0.00167821 0.0 
1.00149 -0.00706371 0.0 
1.00001 0.000141892 0.0 
1.00144 -0.00931513 0.0 
1.00298 0.00296078 0.0 
1.00117 -0.00092889 0.0 
0.422826 -0.0317483 0.0 
1.0005 0.000838548 0.0 
1.00144 0.000877703 0.0 
1.00092 0.00167405 0.0 
1.00212 -0.00143387 0.0 
1.00407 0.000635438 0.0 
1.10908 -0.0151308 0.0 
0 0 0.0 
0.999697 -0.00021584 0.0 
1.0005 -7.52319e-05 0.0 
1.00092 -0.0006968 0.0 
0.999987 1.22817e-05 0.0 
1.00125 0.00109228 0.0 
0 0 0.0 
1.00276 -0.000540713 0.0 
1.00076 -0.000750823 0.0 
1.00139 0.000252204 0.0 
1.00106 -0.00155524 0.0 
1.01295 0.000352701 0.0 
1.00143 0.0010659 0.0 
1.00258 -0.00109752 0.0 
1.00056 -0.000240325 0.0 
1.00352 0.00177077 0.0 
0.00390122 -0.000421541 0.0 
1.00038 0.00137782 0.0 
1.00075 0.00129238 0.0 
1.0084 -0.0019616 0.0 
1.09874 -0.044088 0.0 
1.00067 -0.00120824 0.0 
0.00801558 -0.00035051 0.0 
1.00351 0.00109645 0.0 
1.00079 -0.00139723 0.0 
0.999995 -0.000753155 0.0 
1.00189 0.00208333 0.0 
1.00061 7.83103e-05 0.0 
1.00002 -0.000285719 0.0 
1.00051 -0.00153764 0.0 
1.00095 -0.000394406 0.0 
1.00091 -0.00108542 0.0 
0.0528706 0.00274808 0.0 
1.00095 -0.000492851 0.0 
1.00118 0.00123974 0.0 
1.00293 0.00128116 0.0 
1.00015 -0.000260669 0.0 
1.00002 -0.000113945 0.0 
1.02355 -0.0575838 0.0 
0.99965 0.0104726 0.0 
1.00078 3.80222e-05 0.0 
0.99981 0.00217143 0.0 
1.00335 -0.00380883 0.0 
0.999992 3.47554e-05 0.0 
0.996757 0.00115483 0.0 
0.0444005 0.00687788 0.0 
0.998899 0.00538198 0.0 
1.00136 -0.00106855 0.0 
1.00124 0.00109233 0.0 
1.00224 4.36538e-05 0.0 
1.00049 -0.000166781 0.0 
1.00295 0.00744526 0.0 
1.00082 0.000537596 0.0 
1.00089 -0.00159754 0.0 
0.0985723 -0.052555 0.0 
1.00115 -0.00208002 0.0 
1.00011 0.000759256 0.0 
1.0066 0.00472284 0.0 
1.00155 -7.90273e-05 0.0 
1.00544 0.000909305 0.0 
1.0034 0.000553551 0.0 
0.998175 -0.00315308 0.0 
0.0418746 0.00237181 0.0 
0.989254 -0.00985794 0.0 
1.00372 -0.00090254 0.0 
0.993558 0.0110686 0.0 
1.00009 -0.000779222 0.0 
1.00984 0.000101607 0.0 
1.00074 0.0016723 0.0 
1.00125 0.00159787 0.0 
1.00025 0.00126592 0.0 
1.00227 -0.000241513 0.0 
1.00147 -0.00107614 0.0 
1.00002 0.000203607 0.0 
1.00129 -0.00176518 0.0 
0.134563 -0.0336121 0.0 
1.07074 -0.142916 0.0 
1.00003 -8.28865e-06 0.0 
1.00111 0.000612663 0.0 
0.999952 -0.000361745 0.0 
0.997111 0.000197602 0.0 
0.996949 0.00200329 0.0 
1.00183 0.000567932 0.0 
0.969027 -0.1912 0.0 
0.0555531 0.00836797 0.0 
0.181263 -0.0140553 0.0 
0.997242 -0.00523797 0.0 
1.00005 -0.000106296 0.0 
1.00075 -0.00102219 0.0 
1.00589 -0.0020769 0.0 
0.999516 0.000453912 0.0 
1.00214 0.00270492 0.0 
1.00005 0.000198276 0.0 
1.10888 -0.041875 0.0 
0.999593 -0.00428104 0.0 
1.00075 0.000118477 0.0 
0.999775 -0.000597936 0.0 
9.17125e-09 -6.71659e-10 0.0 
1.00545 0.00634615 0.0 
0.899705 -0.00125728 0.0 
0.998608 -0.00665454 0.0 
1.00054 0.00116433 0.0 
1.00134 -0.00236964 0.0 
1.00098 0.00072794 0.0 
0.108265 0.00368224 0.0 
1.00157 0.0011946 0.0 
0 0 0.0 
1.00056 0.000652539 0.0 
1.00038 0.00203103 0.0 
1.00044 -0.000919534 0.0 
0.99905 0.00174425 0.0 
0 0 0.0 
4.78423e-09 -6.40663e-10 0.0 
1.00019 0.000590292 0.0 
1.00125 -0.000972895 0.0 
1.00014 0.000194602 0.0 
0.999704 0.000725106 0.0 
1.0001 -0.000314565 0.0 
0.996498 0.00315642 0.0 
1.00108 0.0011312 0.0 
1.00214 -0.00169602 0.0 
0.999912 0.000195721 0.0 
1.00003 0.000136591 0.0 
0.999964 9.26219e-05 0.0 
1.01951 -0.00513463 0.0 
1.00116 -0.00156338 0.0 
0.998524 -0.00486327 0.0 
0.996988 0.00257866 0.0 
1.00079 0.0017749 0.0 
1.00111 0.00114268 0.0 
0.999803 0.00171649 0.0 
1.00359 -0.00149097 0.0 
1.00183 8.00907e-05 0.0 
1.00001 -0.000145356 0.0 
0.999203 0.00127077 0.0 
1.00104 0.00139059 0.0 
0.999807 0.00169043 0.0 
0.996908 -0.0005152 0.0 
1.00057 0.000927738 0.0 
1.00778 -0.00809613 0.0 
1.00124 0.00108204 0.0 
1.00094 -0.000931553 0.0 
0.999847 0.000363133 0.0 
1.00089 -0.00115625 0.0 
1.00795 -0.00537748 0.0 
0.997491 0.000652411 0.0 
0.999961 3.00056e-05 0.0 
0.999899 -0.000684989 0.0 
1.00062 -0.000179533 0.0 
1.02138 -0.0163983 0.0 
1.00133 0.00142356 0.0 
1.00089 0.00147471 0.0 
1.00094 -0.00103481 0.0 
1.001 0.00117872 0.0 
0.999981 -3.37143e-05 0.0 
1.00119 6.08799e-06 0.0 
1.00005 -5.07159e-05 0.0 
1.0003 -0.000413126 0.0 
1.00003 -0.000336199 0.0 
0.998113 0.00673833 0.0 
1.00691 -0.00253959 0.0 
1.00007 -0.000142004 0.0 
0.999815 -8.04646e-05 0.0 
0.999809 -0.000363043 0.0 
0.871974 0.0649806 0.0 
1.00028 -8.92978e-05 0.0 
0.0715493 0.00455936 0.0 
0.999764 0.000203313 0.0 
1.00141 0.000762727 0.0 
0.999973 0.00108675 0.0 
1.0014 0.0011217 0.0 
1.0023 -0.000810314 0.0 
1.00045 -0.000138373 0.0 
1.00127 0.0011208 0.0 
1.00056 0.00101829 0.0 
1.0064 -0.00580232 0.0 
1.01809 0.00416151 0.0 
0.999595 -0.000358695 0.0 
1.0009 -0.00194762 0.0 
1.00191 0.0653419 0.0 
1.00126 0.00110332 0.0 
0.999286 0.000136465 0.0 
1.00084 0.00159878 0.0 
1.00117 -0.00114983 0.0 
1.00001 1.71117e-05 0.0 
1.07738 -0.261864 0.0 
1.00002 -3.67938e-05 0.0 
0 0 0.0 
1.00206 -0.00207468 0.0 
1.00099 0.000879291 0.0 
1.00029 -0.000229726 0.0 
1.00171 -0.00088977 0.0 
1.0006 -0.000711387 0.0 
1.00064 -0.00178269 0.0 
1.00119 0.000700359 0.0 
0.582721 0.00465825 0.0 
0.999989 -2.75331e-05 0.0 
1.00094 -0.000161886 0.0 
0.999778 0.00030976 0.0 
1.00009 -0.000352799 0.0 
1.00038 -9.34606e-05 0.0 
1.00136 -0.00100821 0.0 
1.00068 -0.00138956 0.0 
0.999986 4.44864e-05 0.0 
1.00734 0.00273453 0.0 
1.00165 -0.00140599 0.0 
0 0 0.0 
1.01509 0.00674535 0.0 
1.00144 0.00148272 0.0 
0.999969 -1.66858e-06 0.0 
1.00122 0.00132896 0.0 
1.00169 -0.00247764 0.0 
0.999627 0.00109969 0.0 
1.00094 0.00139982 0.0 
0.996637 0.00563684 0.0 
9.08357e-08 -4.51029e-08 0.0 
0.689199 0.00841358 0.0 
0.999854 0.000551569 0.0 
0.05412 -0.00793122 0.0 
1.00113 -0.00117321 0.0 
1.00433 2.6149e-05 0.0 
1.00115 -0.000744896 0.0 
0.999881 -0.000504235 0.0 
1.00077 -0.000327431 0.0 
1.00407 0.00502031 0.0 
0.993317 -0.00071854 0.0 
1.00508 -0.0132797 0.0 
1.00175 -0.000180766 0.0 
1.00188 0.00111652 0.0 
0.655162 -0.0525834 0.0 
1.0008 0.0005812 0.0 
1.00002 4.17997e-05 0.0 
0.299066 0.021542 0.0 
1.99649e-08 8.06602e-11 0.0 
1.00142 -0.0006932 0.0 
1.00097 0.00114839 0.0 
1.00126 2.61759e-05 0.0 
1.00085 -0.000903554 0.0 
0.393917 -0.0242353 0.0 
0 0 0.0 
1.00049 -0.00154166 0.0 
1.00136 -0.000681621 0.0 
0.999868 1.12764e-05 0.0 
1.0009 0.000660376 0.0 
1.0335 0.0447777 0.0 
0.035376 0.00161702 0.0 
1.00057 0.00155182 0.0 
0.999997 -0.000132525 0.0 
1.00142 -0.00203606 0.0 
0.998874 -0.00369057 0.0 
1.00084 -0.00157051 0.0 
1.02444 -0.0232236 0.0 
1.00135 0.00125748 0.0 
1.00445 -0.00241802 0.0 
1.00114 -0.00112503 0.0 
0.999972 -0.00100687 0.0 
1.00094 -0.0012772 0.0 
0.591802 0.0399217 0.0 
1.00031 4.97512e-05 0.0 
1.00173 0.000921769 0.0 
1.0009 0.00159944 0.0 
1.00018 -0.001062 0.0 
0.0150987 -0.000119397 0.0 
1.00095 -9.08361e-05 0.0 
1.00002 5.00909e-05 0.0 
0 0 0.0 
0.999489 0.00149181 0.0 
0.999712 0.0042871 0.0 
1.0043 -0.00132257 0.0 
2.85323e-08 -5.72686e-10 0.0 
1.00303 0.00208437 0.0 
0.99979 -0.000568842 0.0 
1.00751 -0.000487229 0.0 
1.00111 -0.00120919 0.0 
1.00183 -0.00133383 0.0 
1.00093 -4.58504e-05 0.0 
1.00079 8.68361e-05 0.0 
0 0 0.0 
1.00104 -0.000931367 0.0 
0.999991 2.13442e-05 0.0 
0.999513 0.00254211 0.0 
1.00316 0.000228385 0.0 
1.00002 -0.000230564 0.0 
0 0 0.0 
0.994795 -0.00105655 0.0 
1.00087 -0.000971989 0.0 
1.0013 0.000995522 0.0 
1.00013 -0.000378401 0.0 
0.999242 0.0016155 0.0 
1.00141 -0.000995824 0.0 
1.00122 0.00117931 0.0 
1.00004 0.000218553 0.0 
1.0012 0.00142134 0.0 
1.00006 0.000366066 0.0 
1.00052 -0.000792877 0.0 
1.00013 3.07644e-05 0.0 
0.998715 -0.00543812 0.0 
1.00048 0.00146352 0.0 
0.102744 -0.00540319 0.0 
1.0008 0.000213971 0.0 
0 0 0.0 
1.00008 0.000234368 0.0 
1.00121 0.000133507 0.0 
0.999109 -0.000336447 0.0 
1.00063 -0.00026231 0.0 
1.00089 0.00127954 0.0 
1.00335 -0.0014388 0.0 
1.00093 0.000323594 0.0 
1.00033 -0.000166492 0.0 
1.0003 0.0010537 0.0 
0.031556 0.001983 0.0 
0.999706 0.00442768 0.0 
1.00005 -7.60072e-05 0.0 
1.00205 -3.65895e-05 0.0 
1.00094 -0.00078217 0.0 
0.0094596 -0.000428146 0.0 
1.09733 0.00167918 0.0 
1.00054 -0.000858939 0.0 
1.0014 0.00493613 0.0 
0.999848 -0.00330721 0.0 
1.0135 0.00719276 0.0 
1.00011 -0.000903633 0.0 
1.00117 0.0010898 0.0 
1.00101 -0.000222238 0.0 
0.0478145 0.00330749 0.0 
1.00077 -0.00077674 0.0 
1.0011 0.00256979 0.0 
1.00104 0.00114529 0.0 
0.0179879 0.000326971 0.0 
0.0470512 0.00383061 0.0 
1.00025 0.00325907 0.0 
1.00007 4.58434e-05 0.0 
1.00121 0.0012867 0.0 
1.00069 0.000142778 0.0 
1.00141 -0.000256111 0.0 
0.999473 -0.000727103 0.0 
1.00053 0.000176626 0.0 
1.00001 2.18167e-05 0.0 
0.988961 0.0101841 0.0 
0.326849 0.0246828 0.0 
0.999696 -0.00347683 0.0 
1.00849 0.00249715 0.0 
1.00001 -3.43353e-05 0.0 
1.00158 -0.00197868 0.0 
1.00097 -0.00017074 0.0 
1.00108 0.00117471 0.0 
0.998885 0.00235481 0.0 
1.00054 0.000830376 0.0 
1.00094 0.000932373 0.0 
0 0 0.0 
0.999827 -0.00088891 0.0 
0.999901 -1.30699e-05 0.0 
0.999589 0.00158131 0.0 
1.00098 -0.000223602 0.0 
1.00274 0.000856813 0.0 
1.00025 0.000131809 0.0 
0.999985 1.71252e-05 0.0 
0 0 0.0 
1.00431 -0.00197734 0.0 
1.00104 -0.000663016 0.0 
1.00075 -0.000223766 0.0 
1.00001 9.403e-05 0.0 
1.00063 -0.000332462 0.0 
1.00114 -0.000407354 0.0 
1.00115 0.00131993 0.0 
1.00153 0.00201246 0.0 
0.99563 -0.00442531 0.0 
1.00005 0.000704032 0.0 
1.00069 -0.000148909 0.0 
1.00005 -0.000310029 0.0 
1.00115 0.00157544 0.0 
1.00651 -0.00352751 0.0 
1.00045 0.000168179 0.0 
1.00151 -0.00858362 0.0 
1.00017 3.32246e-05 0.0 
1.00089 7.72252e-06 0.0 
1.00086 0.000188459 0.0 
1.00063 0.000353667 0.0 
1.00128 -0.000106873 0.0 
1.00116 -0.000104631 0.0 
1.0004 0 0.0 
1.00132 -0.00390304 0.0 
1.00052 0 0.0 
0.00832057 0.00024821 0.0 
0.356273 0.0261555 0.0 
1.00307 -0.00480914 0.0 
0.99951 2.0166e-05 0.0 
1.00018 0.00030803 0.0 
1.00018 0.00184567 0.0 
0.994409 -0.00402407 0.0 
1.00065 0.00125302 0.0 
0.962496 0.000446585 0.0 
1.00066 0.000238059 0.0 
1.00271 -0.000700534 0.0 
1.00002 0.000425487 0.0 
1.00325 0.000490478 0.0 
1.00026 -0.000191937 0.0 
1.00127 0.000836829 0.0 
1.01484 0.0186179 0.0 
1.00059 0.000422068 0.0 
1.00026 0.00153881 0.0 
1.00248 -0.010319 0.0 
1.00146 0.00117539 0.0 
1.00153 4.67599e-05 0.0 
1.00009 0.000308156 0.0 
0 0 0.0 
1.00058 -0.00011538 0.0 
0.999823 0.000848524 0.0 
1.00065 7.56245e-05 0.0 
0.999876 0.000436771 0.0 
1.00119 0.00114582 0.0 
1.00041 -0.00255015 0.0 
0 0 0.0 
0 0 0.0 
0.997621 0.00433261 0.0 
1.00051 0.000451695 0.0 
1.00005 -0.000125142 0.0 
1.00002 -2.35849e-05 0.0 
1.00274 -0.00231045 0.0 
0.995508 -0.00155112 0.0 
1.00005 -0.000553485 0.0 
1.00129 -0.00104417 0.0 
1.00405 0.00662939 0.0 
1.00165 0.000718003 0.0 
1.00203 0.00359827 0.0 
0 0 0.0 
1.00213 0.000713689 0.0 
0.999934 -4.94167e-05 0.0 
1.00028 -0.00176719 0.0 
0.998787 -0.0025239 0.0 
0.999811 -0.000200364 0.0 
0.999968 1.36754e-05 0.0 
0.999931 -7.45726e-05 0.0 
1.00115 -0.00131575 0.0 
0.854733 -0.000420811 0.0 
1.00181 0.000285419 0.0 
1.00044 -0.000380273 0.0 
1.00051 0.000105369 0.0 
0.998449 0.00120806 0.0 
1.01284 -0.0026644 0.0 
0.0596774 0.00207502 0.0 
1.00286 0.00142197 0.0 
1.00358 3.21556e-05 0.0 
1.00001 0.000108812 0.0 
0.999976 -0.000215183 0.0 
1.00177 -3.40455e-05 0.0 
1.00293 -0.00157159 0.0 
1.00058 -0.000509545 0.0 
1.00004 1.70056e-05 0.0 
0.997725 0.00142715 0.0 
1.00007 -0.0003927 0.0 
3.00279e-08 -6.44853e-09 0.0 
1.00009 9.06501e-05 0.0 
1.00183 0.00133731 0.0 
1.00366 0.00161753 0.0 
0.0413584 0.00225674 0.0 
1.00098 -5.24627e-05 0.0 
1.00143 0.00614562 0.0 
1.00125 -0.000457348 0.0 
0.999872 -0.000224558 0.0 
0.999986 -1.15237e-05 0.0 
0.997958 -0.00179262 0.0 
1.0011 0.000461964 0.0 
1.00073 0.000608254 0.0 
1.00004 0.0137488 0.0 
1 -0.000200705 0.0 
0.999671 -0.00263071 0.0 
1.00008 -0.00140113 0.0 
1.00161 0.000462561 0.0 
0.999963 0.000211783 0.0 
1.00047 0.000892633 0.0 
1.00081 -0.0026761 0.0 
1.00206 0.000450851 0.0 
1.00144 -0.00109021 0.0 
0.999985 9.29324e-05 0.0 
1.00038 -0.000218619 0.0 
1.00262 -0.000380351 0.0 
0.999272 0.00047878 0.0 
1.02886 -0.0557606 0.0 
1.00037 0.00137231 0.0 
1.00003 -0.000197848 0.0 
1.00038 -0.00105018 0.0 
1.0052 -0.00156789 0.0 
0.999774 0.0003656 0.0 
1.0005 -0.000514769 0.0 
1.00022 -0.000519252 0.0 
1.00107 0.000900308 0.0 
1.00176 -0.00160421 0.0 
1.00123 0.00214136 0.0 
1.00172 0.00136289 0.0 
0 0 0.0 
1.00068 3.22518e-05 0.0 
1.0055 0.00274165 0.0 
0.0122185 -0.000194419 0.0 
0.999549 0.00124418 0.0 
0.988147 -0.0391121 0.0 
1.00101 -0.00209172 0.0 
1.00103 0.000177617 0.0 
0 0 0.0 