<VTKFile type="UnstructuredGrid" version="0.1" byte_order="LittleEndian">
  <UnstructuredGrid>
    <Piece NumberOfPoints="9712" NumberOfCells="19403">
      <Points>
        <DataArray type = "Float64" NumberOfComponents="3" format="ascii">
-5 -7 0.0 
15.5 -7 0.0 
15.5 7 0.0 
-5 7 0.0 
-1.6546 1.77742 0.0 
-2.13867 1.86504 0.0 
-1.83467 1.79143 0.0 
1.47969 -2.21179 0.0 
1.36003 -2.38618 0.0 
1.4346 -2.45048 0.0 
-2.04214 1.94165 0.0 
-0.20425 1.17338 0.0 
-2.07648 1.81911 0.0 
-2.00827 1.89081 0.0 
-2.05492 1.98872 0.0 
0.192693 0.536219 0.0 
0.154285 1.75648 0.0 
1.1379 -1.62057 0.0 
-2.11226 1.96977 0.0 
-1.74119 1.75327 0.0 
1.14499 -1.58184 0.0 
-1.94373 2.37229 0.0 
1.50619 -0.664239 0.0 
1.99658 -1.76705 0.0 
1.7229 -1.18344 0.0 
-1.97759 2.52091 0.0 
-0.768046 0.387136 0.0 
1.32657 -1.43969 0.0 
1.90142 0.24821 0.0 
-0.93264 1.51038 0.0 
1.09557 0.967223 0.0 
0.627111 0.757352 0.0 
-2.05707 2.31394 0.0 
1.34027 -2.45136 0.0 
-0.725097 0.397516 0.0 
-0.666094 2.30428 0.0 
-0.73829 -0.279965 0.0 
1.73336 -1.08822 0.0 
1.88466 -1.24421 0.0 
1.50539 -1.23752 0.0 
1.65978 -1.30759 0.0 
-0.0409718 0.542603 0.0 
1.6005 -1.1227 0.0 
1.78439 -0.941488 0.0 
1.86015 -1.54236 0.0 
1.49308 -1.40058 0.0 
2.34892 -1.47149 0.0 
2.13832 -1.3246 0.0 
1.73061 0.751302 0.0 
-0.580328 0.526903 0.0 
1.51013 -2.1595 0.0 
-1.65424 3.45779 0.0 
-1.51397 2.46352 0.0 
1.42773 -2.17867 0.0 
0.304353 0.497878 0.0 
2.24628 0.228293 0.0 
1.51258 -2.27933 0.0 
-1.60346 3.44299 0.0 
-1.71408 2.36227 0.0 
2.17421 0.530405 0.0 
2.42 0.316451 0.0 
-1.63642 3.31911 0.0 
2.53942 -0.995036 0.0 
0.750003 0.810439 0.0 
2.04736 0.40918 0.0 
1.19615 -1.50641 0.0 
2.13474 0.494063 0.0 
0.547924 0.306722 0.0 
-0.2059 0.361394 0.0 
2.2127 0.547693 0.0 
1.41442 -0.597105 0.0 
1.52233 -1.46252 0.0 
-1.84114 2.53924 0.0 
-5 -2.53894 0.0 
2.32127 0.371156 0.0 
-1.69186 3.33379 0.0 
-0.964779 0.566136 0.0 
-1.81311 2.48387 0.0 
-1.78557 3.38304 0.0 
1.48278 0.914136 0.0 
2.51531 -1.89689 0.0 
1.20982 -0.330514 0.0 
0.408434 0.319657 0.0 
0.95023 0.60993 0.0 
-0.752349 0.440796 0.0 
-0.998248 0.564019 0.0 
-1.73165 3.36299 0.0 
1.24353 -1.49063 0.0 
0.942095 0.817189 0.0 
-1.77816 2.47096 0.0 
2.48183 -1.95479 0.0 
1.33574 -1.77854 0.0 
0.823335 1.12085 0.0 
-0.36308 0.598468 0.0 
0.745466 0.783414 0.0 
-1.88344 2.8521 0.0 
-1.79794 3.52221 0.0 
3.0087 0.272815 0.0 
-1.81486 2.66014 0.0 
0.375911 -0.403668 0.0 
-0.68323 0.487288 0.0 
-0.34187 -0.274923 0.0 
-0.293875 -0.201368 0.0 
1.61018 -1.767 0.0 
-0.448275 -0.347267 0.0 
-1.08687 0.352015 0.0 
1.29257 -1.76345 0.0 
1.67658 -1.49551 0.0 
1.19193 0.533009 0.0 
1.21582 -1.91654 0.0 
-0.36438 -0.346225 0.0 
-0.92534 0.330346 0.0 
2.3836 0.287756 0.0 
1.68841 0.639887 0.0 
1.59001 -1.89458 0.0 
1.14818 -1.92143 0.0 
1.28996 -2.19426 0.0 
1.37603 -1.8763 0.0 
1.23834 -2.09141 0.0 
1.11702 -2.06287 0.0 
0.691829 0.463808 0.0 
1.46523 -2.03459 0.0 
-0.123547 0.424486 0.0 
-1.3311 2.12174 0.0 
1.08169 -1.90074 0.0 
1.87975 -2.15971 0.0 
1.10131 -1.78593 0.0 
1.13722 0.534683 0.0 
1.42465 -1.59031 0.0 
-1.45435 2.47344 0.0 
1.41998 -1.98207 0.0 
0.463917 1.8787 0.0 
-1.72896 2.89571 0.0 
1.12419 -1.84975 0.0 
1.59054 -1.20634 0.0 
0.46124 0.621002 0.0 
0.806438 -1.00204 0.0 
2.1804 0.349761 0.0 
2.21142 -1.6418 0.0 
1.10152 -0.274558 0.0 
2.23388 0.387302 0.0 
0.137769 0.567007 0.0 
1.88736 0.267391 0.0 
1.26821 -1.94267 0.0 
0.21033 -0.605707 0.0 
2.61094 -1.50046 0.0 
0.819837 0.743337 0.0 
-1.4303 2.07799 0.0 
1.82013 0.322126 0.0 
-1.47649 2.2099 0.0 
1.15745 -0.274223 0.0 
-1.81198 2.24994 0.0 
2.34337 -1.67775 0.0 
-1.13329 1.37877 0.0 
-0.828215 1.05292 0.0 
2.46752 -1.53452 0.0 
-1.69915 2.18529 0.0 
-0.404416 -0.286271 0.0 
-1.23501 1.31766 0.0 
2.11757 -1.50659 0.0 
-1.08535 1.28274 0.0 
2.58548 -1.70783 0.0 
0.24729 -0.572345 0.0 
-1.66963 2.25319 0.0 
1.58322 -1.62308 0.0 
-0.367923 -0.306026 0.0 
0.391521 1.44485 0.0 
1.88977 -2.46319 0.0 
1.5943 -1.53613 0.0 
-0.357143 -0.23651 0.0 
0.82621 0.80563 0.0 
-1.59261 2.31884 0.0 
-0.47244 -0.307516 0.0 
-0.40334 -0.326688 0.0 
-2.00063 2.11543 0.0 
1.55514 -1.95078 0.0 
-1.40431 2.26352 0.0 
-0.0265928 0.573714 0.0 
1.17093 1.10579 0.0 
-1.77907 2.22111 0.0 
0.682788 0.329642 0.0 
-0.54475 2.15572 0.0 
-0.288592 0.289433 0.0 
-1.43199 2.16349 0.0 
-1.45029 2.25134 0.0 
1.5535 -1.79992 0.0 
-1.06406 1.08381 0.0 
1.72954 1.44966 0.0 
0.582806 0.515814 0.0 
0.582876 -0.679913 0.0 
1.32351 -0.355916 0.0 
-0.47505 0.577092 0.0 
-0.371167 0.227715 0.0 
1.52235 -1.8529 0.0 
-0.429822 -0.244811 0.0 
-0.53237 -0.24648 0.0 
-0.393983 -0.210364 0.0 
0.652895 0.317361 0.0 
1.55812 -1.70765 0.0 
1.63021 0.325622 0.0 
0.442731 0.358729 0.0 
1.22925 -1.85192 0.0 
1.43517 -1.79082 0.0 
1.39317 -1.6984 0.0 
1.62965 0.295952 0.0 
0.905462 0.793465 0.0 
1.04036 -1.64811 0.0 
2.1131 -1.72466 0.0 
-0.743911 0.369492 0.0 
1.14427 -1.99314 0.0 
1.26033 -2.0209 0.0 
-1.70955 2.07308 0.0 
0.910023 -1.62976 0.0 
-0.313059 -0.0954838 0.0 
-1.77334 2.3988 0.0 
-0.311958 -0.24042 0.0 
2.53315 0.325608 0.0 
-0.273728 -0.226719 0.0 
-0.646401 0.379627 0.0 
1.52426 0.616074 0.0 
2.21703 -1.79499 0.0 
2.71108 0.312216 0.0 
0.759924 1.093 0.0 
-1.69271 2.12368 0.0 
0.255794 0.540969 0.0 
0.0534699 0.562158 0.0 
-1.5679 2.22408 0.0 
-1.66906 2.45165 0.0 
-1.51895 2.09449 0.0 
2.16948 0.408238 0.0 
-0.818806 0.680638 0.0 
-0.826868 0.642087 0.0 
0.519855 0.276992 0.0 
-0.716682 1.18602 0.0 
-0.649974 -0.148775 0.0 
0.457368 0.256619 0.0 
0.517407 0.248194 0.0 
0.327129 0.39802 0.0 
0.533249 -0.878832 0.0 
-0.870735 0.634904 0.0 
1.19219 1.07557 0.0 
2.35922 0.366028 0.0 
-1.66911 3.66723 0.0 
-0.857603 1.54934 0.0 
-0.379189 2.30131 0.0 
-0.941007 1.36523 0.0 
-1.58662 2.49682 0.0 
-0.545297 0.352587 0.0 
0.327944 -0.744683 0.0 
-0.312756 0.524741 0.0 
-0.107843 0.506233 0.0 
2.13378 -2.36584 0.0 
1.52689 0.686953 0.0 
-0.119983 0.327909 0.0 
1.02161 -1.53072 0.0 
1.51507 0.39695 0.0 
-0.674484 1.02605 0.0 
-0.564724 -0.148435 0.0 
0.409388 0.290913 0.0 
0.252349 0.30842 0.0 
-1.09282 1.45998 0.0 
1.45674 -1.54484 0.0 
-0.266777 0.782169 0.0 
0.91327 -0.874389 0.0 
1.01208 1.13309 0.0 
-0.897136 1.35063 0.0 
-0.846484 0.489353 0.0 
1.47563 0.663768 0.0 
-1.22282 2.05021 0.0 
0.348906 0.416714 0.0 
1.41913 0.964648 0.0 
0.933289 -0.839038 0.0 
-1.85066 1.40221 0.0 
0.142477 1.99435 0.0 
-0.717809 0.341194 0.0 
-2.21177 1.41584 0.0 
0.396571 0.350929 0.0 
1.25171 -1.60721 0.0 
0.736798 0.393502 0.0 
-0.661427 0.19031 0.0 
2.18751 -2.32769 0.0 
-1.00908 1.6747 0.0 
2.21416 -2.07269 0.0 
-0.779194 0.642011 0.0 
-1.02312 1.3939 0.0 
2.08809 -2.24876 0.0 
-5 -4.48794 0.0 
1.61792 -1.46215 0.0 
-0.974627 1.38947 0.0 
1.81166 -2.48446 0.0 
-1.03635 1.47474 0.0 
0.869004 -1.74424 0.0 
0.956579 -1.78598 0.0 
1.07495 0.540689 0.0 
-1.08005 1.37763 0.0 
0.914755 -0.803058 0.0 
0.611759 -0.305322 0.0 
1.70043 -1.41356 0.0 
0.75708 -0.631542 0.0 
1.21215 1.01979 0.0 
-0.586902 0.440014 0.0 
1.9251 -2.56336 0.0 
-1.58261 1.91091 0.0 
-0.746541 1.26087 0.0 
-1.49915 1.13657 0.0 
-1.46675 0.971536 0.0 
-1.05881 0.930935 0.0 
0.71826 0.415078 0.0 
-0.701697 0.526982 0.0 
-1.56194 2.05157 0.0 
1.15988 0.991244 0.0 
1.38676 0.949615 0.0 
-1.61697 2.02689 0.0 
1.13748 -0.357331 0.0 
-1.8456 2.04561 0.0 
0.253686 -0.756334 0.0 
-1.53603 1.86509 0.0 
-1.43465 0.924137 0.0 
-1.00273 1.27416 0.0 
-1.03063 1.5132 0.0 
-1.32483 1.94769 0.0 
-0.965552 1.61445 0.0 
-0.239859 -0.245939 0.0 
-5 3.01776 0.0 
-5 -0.248741 0.0 
0.517491 1.87079 0.0 
-1.18776 1.8875 0.0 
2.27458 0.36201 0.0 
1.9794 0.331487 0.0 
0.503086 0.510306 0.0 
1.26387 -0.370702 0.0 
1.24483 0.550197 0.0 
1.12871 0.979556 0.0 
-1.48659 1.83259 0.0 
1.0672 0.958366 0.0 
-1.16856 1.61214 0.0 
-0.218637 -0.230696 0.0 
-5 1.81431 0.0 
1.37014 1.04658 0.0 
0.0950623 0.557621 0.0 
-1.23613 1.67303 0.0 
0.953731 -0.709843 0.0 
2.07568 -1.85385 0.0 
2.10836 -1.82014 0.0 
-0.994952 1.33552 0.0 
-1.86986 1.52312 0.0 
0.515812 0.447542 0.0 
0.842446 0.992035 0.0 
-1.42353 1.8223 0.0 
2.091 0.354014 0.0 
-0.937663 0.401428 0.0 
-1.69305 1.41997 0.0 
-1.82465 1.55127 0.0 
2.15192 0.384657 0.0 
-1.17972 1.37998 0.0 
-0.718866 -0.0130647 0.0 
-0.927867 0.290435 0.0 
1.56509 0.300406 0.0 
-5 -3.04052 0.0 
9.98027 -7 0.0 
0.176009 0.694641 0.0 
0.597997 -0.559941 0.0 
-0.546583 0.4849 0.0 
0.602022 -0.657834 0.0 
2.17737 0.379672 0.0 
1.89809 0.287017 0.0 
-1.58883 1.35796 0.0 
-1.2284 1.37063 0.0 
-1.43937 1.35342 0.0 
-1.59664 1.47263 0.0 
0.577431 -0.368705 0.0 
1.5263 -1.51093 0.0 
0.479666 0.796509 0.0 
0.894995 1.01463 0.0 
2.22312 0.363016 0.0 
-0.320562 0.726481 0.0 
-1.30188 2.41386 0.0 
0.43802 0.434693 0.0 
-0.761697 0.762024 0.0 
1.45688 -1.49591 0.0 
-0.65072 0.676835 0.0 
1.6097 -1.41509 0.0 
2.25768 0.399237 0.0 
1.85518 0.299709 0.0 
2.14618 0.290757 0.0 
2.25222 0.371677 0.0 
-1.93063 2.91367 0.0 
1.52717 0.319618 0.0 
1.67964 -1.62237 0.0 
1.35962 -0.439169 0.0 
1.63007 -1.54335 0.0 
-5 -0.764504 0.0 
-1.61377 2.62271 0.0 
1.73865 -1.57725 0.0 
-0.908306 1.23669 0.0 
1.60766 0.330292 0.0 
1.82509 -1.63054 0.0 
1.90521 0.312457 0.0 
1.98719 -1.6488 0.0 
-0.528791 0.39225 0.0 
1.94978 -2.39003 0.0 
-0.472559 0.718465 0.0 
-1.28058 2.26572 0.0 
0.881581 -0.556282 0.0 
2.26369 0.42542 0.0 
0.917309 -1.69962 0.0 
0.853954 -1.60945 0.0 
1.30086 -0.404316 0.0 
1.99565 -2.46852 0.0 
1.49445 -1.47573 0.0 
1.68285 0.863315 0.0 
2.03074 -2.37549 0.0 
2.52279 -0.506167 0.0 
2.56049 -1.76899 0.0 
-1.52889 2.56597 0.0 
2.81136 -0.570221 0.0 
1.3688 -1.46095 0.0 
1.29524 -0.373946 0.0 
-0.350504 0.671928 0.0 
-0.590282 0.564035 0.0 
-0.054366 2.16706 0.0 
1.50819 1.22548 0.0 
-0.548222 0.453941 0.0 
2.19936 -2.5207 0.0 
12.2704 -7 0.0 
1.6811 -1.36761 0.0 
-0.449261 0.559535 0.0 
0.537017 -0.527614 0.0 
-0.00733391 0.553304 0.0 
0.494109 -0.356396 0.0 
-0.7939 0.0827441 0.0 
0.39888 0.467333 0.0 
-1.04288 1.34095 0.0 
0.605019 1.02824 0.0 
0.847559 0.374727 0.0 
1.00336 0.618307 0.0 
2.1955 0.399186 0.0 
0.656973 0.401158 0.0 
-0.998431 2.73564 0.0 
[...]
<PointData>
  <DataArray type = "Float64" Name="VitesseP1" NumberOfComponents="3" format="ascii">
1 0 0.0 
1.08683 0 0.0 
1.03099 0 0.0 
1 0 0.0 
0.994573 0.0158014 0.0 
0.996882 0.0111294 0.0 
0.995458 0.0136073 0.0 
1.04157 -0.0035716 0.0 
1.04343 -0.00501579 0.0 
1.04869 -0.00449184 0.0 
0.997726 0.0120584 0.0 
0.986269 0.0724069 0.0 
0.996575 0.01146 0.0 
0.996786 0.0122492 0.0 
0.998885 0.0120622 0.0 
0.992418 0.217599 0.0 
1.01885 0.0537939 0.0 
1.05002 -0.0254493 0.0 
0.998811 0.0114824 0.0 
0.994988 0.0145339 0.0 
1.05502 -0.0263765 0.0 
0.998847 0.0133965 0.0 
1.16055 -0.0246085 0.0 
1.047 0.0124377 0.0 
1.06337 -0.000959965 0.0 
0.99882 0.0129761 0.0 
0.944522 0.00863952 0.0 
1.06308 -0.0213521 0.0 
0.0645227 -0.00128717 0.0 
0.98866 0.0313804 0.0 
1.14219 0.0656961 0.0 
1.10992 0.140982 0.0 
0.998836 0.0124009 0.0 
1.03369 -0.0179093 0.0 
0.941367 0.01222 0.0 
1.00543 0.030484 0.0 
0.936975 -0.0513089 0.0 
1.08438 -0.00061339 0.0 
1.05614 0.00970989 0.0 
1.05416 -0.0147619 0.0 
1.05699 -0.00422489 0.0 
0.926936 0.151278 0.0 
1.07499 -0.0100936 0.0 
1.12618 0.00309583 0.0 
1.06786 0.00758625 0.0 
1.06356 -0.0130672 0.0 
1.06205 0.0347227 0.0 
1.05684 0.0251059 0.0 
1.19819 0.0243469 0.0 
0.939515 0.0355203 0.0 
1.04044 -0.00348009 0.0 
1.00247 0.0123709 0.0 
0.99981 0.0175519 0.0 
1.03991 -0.00512682 0.0 
1.03794 0.242515 0.0 
0.0406477 0.0159462 0.0 
1.04309 -0.00256198 0.0 
1.00269 0.012766 0.0 
0.999074 0.0156552 0.0 
1.16596 -0.00523214 0.0 
0.176549 -0.00166057 0.0 
1.00239 0.013013 0.0 
1.09329 0.0617498 0.0 
1.12274 0.119279 0.0 
0.576768 -0.00220887 0.0 
1.06076 -0.0262638 0.0 
1.0777 -0.00369665 0.0 
0.55844 0.134499 0.0 
0.862823 0.0852572 0.0 
1.18553 -0.00940574 0.0 
1.20223 -0.0363948 0.0 
1.06682 -0.0107167 0.0 
0.999037 0.0141157 0.0 
1 0 0.0 
0.321664 -0.0145233 0.0 
1.00216 0.0125967 0.0 
0.968085 0.0105453 0.0 
0.999056 0.014473 0.0 
1.00177 0.0117893 0.0 
1.17339 0.0326831 0.0 
1.03731 0.023213 0.0 
0.756054 -0.0401751 0.0 
0.949578 0.262653 0.0 
1.17352 0.113281 0.0 
0.946153 0.0141677 0.0 
0.969898 0.00884659 0.0 
1.00207 0.012214 0.0 
1.0621 -0.0244588 0.0 
1.14345 0.095615 0.0 
0.999121 0.0148219 0.0 
1.0437 0.0276141 0.0 
1.04315 -0.0139685 0.0 
1.09611 0.0779513 0.0 
0.935468 0.0698681 0.0 
1.12512 0.12343 0.0 
0.999888 0.0128983 0.0 
1.00223 0.0110329 0.0 
0.0541062 -0.156708 0.0 
0.999238 0.0140447 0.0 
1.19192 -0.234245 0.0 
0.944044 0.0229225 0.0 
0.918931 -0.0883827 0.0 
0.915762 -0.0745246 0.0 
1.04739 -0.00342789 0.0 
0.924498 -0.0782655 0.0 
0.967141 -0.00817312 0.0 
1.0429 -0.0159187 0.0 
1.06845 -0.00213504 0.0 
1.19719 0.0806762 0.0 
1.03796 -0.0155348 0.0 
0.92023 -0.0886127 0.0 
0.954836 -0.00368352 0.0 
0.113594 0.00811378 0.0 
1.20172 0.0306421 0.0 
1.04385 -0.00331908 0.0 
1.03643 -0.0173874 0.0 
1.03768 -0.00781373 0.0 
1.04185 -0.0109211 0.0 
1.03528 -0.011495 0.0 
1.03247 -0.0163946 0.0 
1.16444 0.182911 0.0 
1.03886 -0.00591852 0.0 
0.877363 0.125758 0.0 
0.999039 0.0210441 0.0 
1.0354 -0.0199151 0.0 
1.04036 0.00557953 0.0 
1.03803 -0.0222276 0.0 
1.19663 0.0883744 0.0 
1.06107 -0.0137983 0.0 
1.00006 0.018177 0.0 
1.03902 -0.00797192 0.0 
1.02762 0.0471457 0.0 
1.00073 0.0139392 0.0 
1.03739 -0.0199096 0.0 
1.0586 -0.00962984 0.0 
1.08769 0.188197 0.0 
1.06872 -0.0725992 0.0 
0.189044 -0.000972075 0.0 
1.05403 0.0233733 0.0 
0.458377 -0.0389826 0.0 
0.39829 -0.0136379 0.0 
0.977772 0.196056 0.0 
0.0688101 -0.00426621 0.0 
1.03795 -0.0133796 0.0 
1.03103 -0.160305 0.0 
1.04949 0.0498148 0.0 
1.13941 0.119094 0.0 
0.998739 0.0196494 0.0 
0.0799647 0.000937526 0.0 
0.998929 0.0187252 0.0 
0.411539 -0.0165793 0.0 
0.998751 0.0147418 0.0 
1.04604 0.0278968 0.0 
0.985094 0.0246101 0.0 
0.973351 0.0343626 0.0 
1.05511 0.0389298 0.0 
0.998574 0.0159934 0.0 
0.922909 -0.0795205 0.0 
0.98411 0.0210225 0.0 
1.06642 0.0213566 0.0 
0.981523 0.0254558 0.0 
1.03303 0.034216 0.0 
1.0404 -0.170806 0.0 
0.998864 0.0162856 0.0 
1.059 -0.00585617 0.0 
0.920334 -0.08589 0.0 
1.03335 0.0690785 0.0 
1.04698 -0.000925577 0.0 
1.0672 -0.0061531 0.0 
0.916587 -0.0817131 0.0 
1.1327 0.11095 0.0 
0.999182 0.0170701 0.0 
0.927778 -0.0727104 0.0 
0.922356 -0.0825821 0.0 
0.998607 0.0127956 0.0 
1.04143 -0.00411357 0.0 
0.99943 0.0195543 0.0 
0.938995 0.151209 0.0 
1.12981 0.0470081 0.0 
0.99869 0.0150999 0.0 
0.636005 0.11028 0.0 
1.00602 0.0346092 0.0 
0.863393 0.0452596 0.0 
0.99888 0.0194441 0.0 
0.999234 0.0189721 0.0 
1.04558 -0.00541075 0.0 
0.973893 0.0239274 0.0 
1.06917 -0.0391954 0.0 
1.14171 0.198626 0.0 
1.10923 -0.128454 0.0 
0.874717 -0.0300506 0.0 
0.938176 0.051741 0.0 
0.875078 0.0162537 0.0 
1.04423 -0.0060879 0.0 
0.924161 -0.0730941 0.0 
0.93326 -0.0625721 0.0 
0.918903 -0.0742522 0.0 
0.583218 0.110615 0.0 
1.05068 -0.00614775 0.0 
0.113292 0.01524 0.0 
1.03787 0.264424 0.0 
1.03968 -0.0164008 0.0 
1.04448 -0.0100645 0.0 
1.04925 -0.0132863 0.0 
0.0927666 0.0236839 0.0 
1.1427 0.102376 0.0 
1.04434 -0.0283665 0.0 
1.04791 0.0176597 0.0 
0.941418 0.00847347 0.0 
1.03386 -0.0163103 0.0 
1.03575 -0.012125 0.0 
0.998697 0.0158719 0.0 
1.04146 -0.0336087 0.0 
0.89872 -0.0655649 0.0 
0.999043 0.0149911 0.0 
0.909836 -0.0857356 0.0 
0.241357 -0.0149339 0.0 
0.887982 -0.0839349 0.0 
0.932617 0.015974 0.0 
1.20075 0.0428355 0.0 
1.04363 0.0208342 0.0 
0.310934 -0.0416244 0.0 
1.09561 0.0856678 0.0 
0.99852 0.0160767 0.0 
1.01916 0.222458 0.0 
0.951584 0.176888 0.0 
0.998862 0.0175306 0.0 
0.999327 0.0159357 0.0 
0.99871 0.0183505 0.0 
0.559592 -0.00808632 0.0 
0.967638 0.0250033 0.0 
0.965342 0.0225105 0.0 
0.415067 0.135678 0.0 
0.976381 0.0408079 0.0 
0.940255 -0.0444284 0.0 
0.301994 0.101498 0.0 
0.375621 0.18439 0.0 
1.06362 0.296294 0.0 
1.06932 -0.102332 0.0 
0.967106 0.0194351 0.0 
1.13751 0.0472369 0.0 
0.31464 -0.012766 0.0 
1.00037 0.0117492 0.0 
0.990256 0.0337059 0.0 
1.00959 0.0351063 0.0 
0.983684 0.0310515 0.0 
0.999641 0.0166657 0.0 
0.918749 0.021214 0.0 
1.05893 -0.131084 0.0 
0.918971 0.0754572 0.0 
0.908753 0.131694 0.0 
1.04558 0.0142075 0.0 
1.19206 0.0401779 0.0 
0.829963 0.1165 0.0 
1.05532 -0.0330937 0.0 
0.575587 0.0201522 0.0 
0.975663 0.0434152 0.0 
0.932658 -0.0503281 0.0 
0.702799 0.194488 0.0 
0.899584 0.338682 0.0 
0.987195 0.0262739 0.0 
1.06512 -0.0128643 0.0 
0.967181 0.0859992 0.0 
1.11321 -0.0758819 0.0 
1.11044 0.0604439 0.0 
0.983058 0.0326964 0.0 
0.956251 0.0119961 0.0 
1.19279 0.045344 0.0 
0.999119 0.0230561 0.0 
1.07784 0.283281 0.0 
1.16629 0.0342605 0.0 
1.12367 -0.0768773 0.0 
0.994047 0.0101375 0.0 
1.01742 0.0461899 0.0 
0.937435 0.00736239 0.0 
0.997203 0.00846679 0.0 
1.01889 0.28378 0.0 
1.05506 -0.0210669 0.0 
1.00233 0.150564 0.0 
0.925155 -0.00669635 0.0 
1.03607 0.032325 0.0 
0.992734 0.0287591 0.0 
1.03669 0.0174668 0.0 
0.962757 0.0256909 0.0 
0.984918 0.0282627 0.0 
1.03618 0.00847251 0.0 
1 0 0.0 
1.06784 -0.00550516 0.0 
0.984636 0.0299065 0.0 
1.04537 -0.000321416 0.0 
0.987481 0.0280561 0.0 
1.0322 -0.0307645 0.0 
1.03422 -0.0269225 0.0 
1.19376 0.0977042 0.0 
0.984719 0.0262942 0.0 
1.12936 -0.0814955 0.0 
0.914269 -0.146381 0.0 
1.06632 -0.00125583 0.0 
1.12803 -0.114171 0.0 
1.14639 0.0496066 0.0 
0.931335 0.0272037 0.0 
1.03711 0.00197486 0.0 
0.995913 0.0172607 0.0 
0.979632 0.0391828 0.0 
0.984018 0.011137 0.0 
0.99547 0.0103817 0.0 
0.990017 0.0212402 0.0 
1.09103 0.167217 0.0 
0.948571 0.0244671 0.0 
0.998677 0.0177232 0.0 
1.14515 0.0571373 0.0 
1.16495 0.0380444 0.0 
0.998423 0.0169668 0.0 
0.933578 -0.0566341 0.0 
0.99906 0.014256 0.0 
1.04305 -0.127882 0.0 
0.99501 0.0178554 0.0 
1.00019 0.0110316 0.0 
0.980651 0.0283349 0.0 
0.988732 0.0283005 0.0 
0.996542 0.0214459 0.0 
0.991798 0.0301415 0.0 
0.882345 -0.105727 0.0 
1 0 0.0 
1 0 0.0 
1.02934 0.0463834 0.0 
0.995212 0.0240937 0.0 
0.26451 -0.0102275 0.0 
0.0762627 0.00597448 0.0 
1.11727 0.21604 0.0 
0.962635 -0.0446157 0.0 
1.20116 0.0741118 0.0 
1.14376 0.061274 0.0 
0.994438 0.0185638 0.0 
1.14068 0.0694044 0.0 
0.991741 0.0246201 0.0 
0.94849 -0.164111 0.0 
1 0 0.0 
1.15635 0.0319296 0.0 
0.961907 0.189462 0.0 
0.9927 0.0231353 0.0 
1.14404 -0.0844535 0.0 
1.04368 0.0147318 0.0 
1.04414 0.0164054 0.0 
0.982766 0.0290007 0.0 
0.995317 0.0113851 0.0 
1.12897 0.231335 0.0 
1.11794 0.0892614 0.0 
0.994186 0.0196167 0.0 
0.177921 -0.00432697 0.0 
0.958493 0.00110428 0.0 
0.992065 0.0121796 0.0 
0.995243 0.0120979 0.0 
0.369919 -0.00697829 0.0 
0.985447 0.0232243 0.0 
0.948609 -0.0293524 0.0 
0.953632 -0.00689271 0.0 
0.0963305 -0.0107966 0.0 
1 0 0.0 
1.06729 0 0.0 
1.00794 0.165518 0.0 
1.1201 -0.145644 0.0 
0.93208 0.0356742 0.0 
1.11317 -0.129747 0.0 
0.335466 -0.00822703 0.0 
0.074322 -0.00258361 0.0 
0.989604 0.0129065 0.0 
0.985587 0.0217424 0.0 
0.987392 0.0160426 0.0 
0.99162 0.0143397 0.0 
1.10922 -0.173153 0.0 
1.06694 -0.0098606 0.0 
1.07979 0.146013 0.0 
1.12081 0.082103 0.0 
0.255532 -0.00705557 0.0 
0.956735 0.078895 0.0 
1.00057 0.0202581 0.0 
1.11179 0.256357 0.0 
0.972269 0.032413 0.0 
1.06619 -0.0137351 0.0 
0.959324 0.0377129 0.0 
1.06588 -0.0064396 0.0 
0.487171 -0.0157191 0.0 
0.0758625 0.00259648 0.0 
0.0653057 0.0172632 0.0 
0.30639 -0.0113673 0.0 
0.999795 0.0123378 0.0 
0.0811682 0.000592448 0.0 
1.05963 -0.00135645 0.0 
1.16275 -0.0416612 0.0 
1.06718 -0.00429677 0.0 
1 0 0.0 
0.999773 0.015968 0.0 
1.06524 0.00142336 0.0 
0.979027 0.0319042 0.0 
0.102899 0.0064622 0.0 
1.05926 0.00558041 0.0 
0.0770449 -0.00152241 0.0 
1.05649 0.0130473 0.0 
0.920434 0.0278802 0.0 
1.04166 0.000816979 0.0 
0.95738 0.058071 0.0 
0.999916 0.0212554 0.0 
1.1955 -0.109325 0.0 
0.691878 -0.0154543 0.0 
1.03629 -0.0307712 0.0 
1.04178 -0.0361649 0.0 
1.07155 -0.0437347 0.0 
1.0541 0.0098402 0.0 
1.0667 -0.0120556 0.0 
1.18688 0.0191009 0.0 
1.04099 0.0139692 0.0 
1.24189 0.0871388 0.0 
1.03469 0.0295745 0.0 
0.999975 0.0170149 0.0 
1.16897 0.108081 0.0 
1.06429 -0.0188896 0.0 
0.97572 -0.0447201 0.0 
0.947818 0.0738765 0.0 
0.944279 0.0371804 0.0 
1.01426 0.0422675 0.0 
1.1325 -0.00381339 0.0 
0.928989 0.0325296 0.0 
1.00788 -0.00565014 0.0 
1.06438 0 0.0 
1.06298 -0.00257259 0.0 
0.933908 0.0542214 0.0 
1.1397 -0.163248 0.0 
0.935806 0.16017 0.0 
1.10363 -0.194681 0.0 
0.952679 -0.0201098 0.0 
1.08805 0.250232 0.0 
0.983238 0.0273113 0.0 
1.08715 0.10348 0.0 
0.793092 0.100771 0.0 
1.17612 0.104267 0.0 
0.48731 -0.0107671 0.0 
1.07745 0.185482 0.0 
1.00414 0.0212799 0.0 
1.05615 0.0158536 0.0 
1.0426 0.00909655 0.0 
1.0479 -0.000435845 0.0 
1.04629 0.000634956 0.0 
0.0931388 0.0120579 0.0 
1.04156 0.00245526 0.0 
-0.000666053 0.021544 0.0 
1.07582 -0.041199 0.0 
1.00404 0.0350453 0.0 
1.04436 0.00974996 0.0 
1 0 0.0 
0.983225 0.0261497 0.0 
1.19428 0.0935171 0.0 
0.775139 -0.0392053 0.0 
0.999625 0.0154091 0.0 
0.991731 0.0388765 0.0 
1.0501 0.0106498 0.0 
1.05483 0.00583373 0.0 
0.940048 0.188814 0.0 
0.783419 0.130046 0.0 
1.00433 0.0183028 0.0 
1.14757 0.129184 0.0 
1.00013 0.24297 0.0 
0.999146 0.0120332 0.0 
0.986003 0.0289939 0.0 
1.05152 0.00169977 0.0 
0.937983 0.12445 0.0 
0.206904 0.0141007 0.0 
1.05052 0.00382942 0.0 
0.174658 0.0990422 0.0 
1.05075 -0.00039686 0.0 
1.03191 -0.0155763 0.0 
1.01564 0.0474965 0.0 
1.13109 -0.0487707 0.0 
1.04725 0.00275305 0.0 
0.957123 -0.00628551 0.0 
0.360312 0.0121195 0.0 
1.06297 -0.0223175 0.0 
0.946688 -0.0014975 0.0 
0.999838 0.0151008 0.0 
1.06054 -0.0272287 0.0 
0.941869 0.0655978 0.0 
1.1973 -0.0441081 0.0 
0.302547 -0.0160885 0.0 
0.613588 -0.0200702 0.0 
0.941216 -0.00467662 0.0 
0.964876 0.27212 0.0 
0.252476 0.047803 0.0 
0.997264 0.315684 0.0 
0.956328 -0.00939803 0.0 
1.079 -0.04226 0.0 
0.729402 -0.00339763 0.0 
0.358242 0.116342 0.0 
1.10181 0.0685193 0.0 
0.998723 0.0121432 0.0 
0.582638 -0.00314073 0.0 
0.187905 0.0358251 0.0 
0.914703 -0.0434457 0.0 
0.776473 -0.0252841 0.0 
1.03052 0.0457788 0.0 
0.998781 0.0117381 0.0 
1.02652 -0.0976363 0.0 
1.11804 -0.0332009 0.0 
1.17424 0.0212007 0.0 
0.0762039 -0.00250386 0.0 
0.936499 -0.057629 0.0 
1.03397 0.0418054 0.0 
1.0668 -0.00762975 0.0 
0.938209 -0.00906066 0.0 
0.0926705 0.00045212 0.0 
0.998809 0.012664 0.0 
1.17268 0.0261897 0.0 
1.059 -0.0265068 0.0 
0.964029 0.215833 0.0 
1.05167 0.0154762 0.0 
1.06818 0.000723548 0.0 
1.06819 0.0055266 0.0 
0.954581 0.0374737 0.0 
1.06091 -0.0242714 0.0 
0.99894 0.0138458 0.0 
0.952318 0.00698108 0.0 
1.14181 -0.0321308 0.0 
1.05439 0.0210305 0.0 
0.989347 0.00728371 0.0 
0.953492 0.0152356 0.0 
0.998983 0.0140312 0.0 
1.05824 0.00580206 0.0 
1.04183 -0.00464397 0.0 
1.06079 -0.0215203 0.0 
0.990507 0.00892917 0.0 
1.0209 0.0458126 0.0 
0.998868 0.0132828 0.0 
1.04551 -0.0261617 0.0 
1.06516 0.0198132 0.0 
0.0574119 0.0169599 0.0 
0.0601635 0.00698455 0.0 
1.06826 0.015701 0.0 
0.905564 -0.056486 0.0 
0.89248 -0.0472543 0.0 
0.883045 0.119678 0.0 
0.999448 0.0139655 0.0 
0.998866 0.0139494 0.0 
0.962897 -0.0132427 0.0 
0.965055 -0.00204409 0.0 
1.03415 0.025989 0.0 
0.964036 0.234712 0.0 
1.06731 0.151429 0.0 
1.02996 -0.0442312 0.0 
0.0666351 0.00277224 0.0 
1.1608 0.0213404 0.0 
1.0924 0.140849 0.0 
0.998716 0.0134688 0.0 
1.01541 0.0354768 0.0 
1.1111 -0.00943546 0.0 
0.98284 0.0208732 0.0 
0.93458 0.0463592 0.0 
1.0312 -0.0287859 0.0 
0.97338 0.0373 0.0 
0.941301 0.108867 0.0 
0.934247 0.0588729 0.0 
0.820897 -0.0367297 0.0 
0.962942 0.00703699 0.0 
0.792272 -0.0475866 0.0 
1.00107 0.0181631 0.0 
1.02898 0.0430778 0.0 
0.953913 -0.0102704 0.0 
0.961642 -0.00109367 0.0 
0.922739 0.034145 0.0 
1.10167 0.248575 0.0 
0.972385 0.00600534 0.0 
0.942971 0.291667 0.0 
0.94548 0.0327122 0.0 
0.975474 0.226217 0.0 
0.850484 0.285913 0.0 
0.995188 0.00749926 0.0 
1.00101 0 0.0 
0.998816 0.0121293 0.0 
0.977316 0.0014783 0.0 
0.896248 0.153513 0.0 
0.135758 0.00852109 0.0 
1.01054 0.0435863 0.0 
0.9808 0.00708146 0.0 
0.999391 0.0125244 0.0 
0.916006 -0.0718914 0.0 
0.916764 0.0329404 0.0 
1.19926 -0.0326674 0.0 
0.99871 0.0124008 0.0 
0.976058 0.0823583 0.0 
0.758591 -0.0781803 0.0 
1.03378 -0.0229395 0.0 
0.936302 0.0636011 0.0 
0.995281 0.0162062 0.0 
0.94452 0.0274735 0.0 
0.991035 0.0200333 0.0 
0.0756419 0.00682989 0.0 
0.750245 -0.0674471 0.0 
1.04289 -0.00301911 0.0 
1.15025 0.0858474 0.0 
1.14858 -0.0284872 0.0 
0.997694 0.0106894 0.0 
0.98218 0.0185654 0.0 
1.00545 0.201772 0.0 
1.11451 0.157065 0.0 
0.585331 0.0953016 0.0 
0.951353 0.18898 0.0 
0.981556 0.0189293 0.0 
0.323024 -0.0242817 0.0 
0.982544 0.0218545 0.0 
0.997287 0.0127438 0.0 
1.00037 0.0196235 0.0 
0.270935 -0.0181138 0.0 
0.227928 -0.0100057 0.0 
0.981724 0.0301007 0.0 
0.33986 0.0579695 0.0 
1.19301 0.089245 0.0 
1.00979 0.0430456 0.0 
0.980882 0.0323567 0.0 
0.999719 0.0195296 0.0 
0.977963 0.0111625 0.0 
0.930409 0.0686521 0.0 
0.976623 0.0256787 0.0 
0.852342 0.285087 0.0 
0.48586 -0.030506 0.0 
0.251929 -0.00992232 0.0 
0.968254 0.0134434 0.0 
0.974844 0.0120689 0.0 
1.05465 0.204387 0.0 
0.329049 -0.0244329 0.0 
0.939974 0.020937 0.0 
1.03445 -0.0381999 0.0 
0.983344 0.245661 0.0 
0.999295 0.013604 0.0 
0.922669 0.081765 0.0 
0.972356 0.0309802 0.0 
0.930313 0.14321 0.0 
0.961004 0.155986 0.0 
1.0092 0.25504 0.0 
0.709637 -0.0281542 0.0 
0.937508 -0.0523757 0.0 
1.11346 0.061053 0.0 
0.470537 0.0935725 0.0 
0.926638 -0.059701 0.0 
0.139174 0.00593742 0.0 
0.899226 -0.0129086 0.0 
0.750771 0.135788 0.0 
0.915342 -0.0664673 0.0 
0.922408 -0.0561922 0.0 
0.615881 0.165185 0.0 
1.04689 0.00773809 0.0 
0.941103 0.173293 0.0 
0.879865 -0.00496058 0.0 
0.928527 -0.0537717 0.0 
1.03997 -0.00540674 0.0 
0.34201 0.0414532 0.0 
1.03706 -0.00849061 0.0 
0.86629 0.00736805 0.0 
0.89852 0.217212 0.0 
1.04832 -0.000693549 0.0 
0.906923 -0.0881324 0.0 
0.922915 0.18265 0.0 
0.313685 -0.0255139 0.0 
1.12694 0.0641639 0.0 
1.03579 0.169841 0.0 
0.831631 0.380837 0.0 
1.10237 0.164388 0.0 
1.06471 0.259594 0.0 
0.964455 -0.0385272 0.0 
0.724135 -0.0940314 0.0 
0.977716 0.0332755 0.0 
0.525029 0.061752 0.0 
0.918643 -0.0526903 0.0 
1.0451 0.0675346 0.0 
0.205347 -0.0046512 0.0 
1.04426 0.263453 0.0 
1.05736 0.0414764 0.0 
0.879209 0.105254 0.0 
1.00521 0.0217851 0.0 
0.892936 0.0669212 0.0 
0.163112 0.00241435 0.0 
0.853512 0.0763848 0.0 
0.949503 0.0368233 0.0 
0.947426 0.00383595 0.0 
1.17372 -0.0378373 0.0 
0.763966 0.335346 0.0 
0.847875 0.0891016 0.0 
1.02807 0.0725038 0.0 
1.08242 -0.0949421 0.0 
0.921288 -0.0469245 0.0 
1.04045 0.271704 0.0 
0.964785 0.0168351 0.0 
0.995606 0.0402678 0.0 
0.910417 0.0769806 0.0 
0.924732 0.112584 0.0 
0.910839 0.0353879 0.0 
1.00928 0.0275269 0.0 
0.919972 0.105904 0.0 
0.91767 0.220775 0.0 
0.999224 0.0126948 0.0 
1.09221 -0.0703453 0.0 
0.330046 -0.0288094 0.0 
1.05441 0.250925 0.0 
0.96639 0.202914 0.0 
0.807375 0.151227 0.0 
0.827177 0.0381798 0.0 
0.886485 0.0298098 0.0 
1.04248 0.30508 0.0 
0.999593 0.0173717 0.0 
1.12502 0.139292 0.0 
1.03339 0.226217 0.0 
0.886599 -0.0483624 0.0 
0.923076 -0.00196837 0.0 
0.858612 0.15838 0.0 
0.911117 0.0206209 0.0 
0.885369 0.0148219 0.0 
0.932536 -0.0460957 0.0 
0.934405 0.207165 0.0 
0.995646 0.0303525 0.0 
0.999608 0.0148731 0.0 
0.137181 0.00538426 0.0 
0.121271 0.00778307 0.0 
0.913067 0.0277319 0.0 
0.527453 0.15372 0.0 
1.0382 -0.00706881 0.0 
0.92188 -0.0164155 0.0 
0.978018 -0.00100721 0.0 
0.902786 0.076452 0.0 
0.842096 0.00668401 0.0 
1.08215 -0.0667505 0.0 
0.955135 0.00793981 0.0 
0.975551 0.00907646 0.0 
1.08457 0.267509 0.0 
0.252745 -0.0120449 0.0 
0.930922 0.30018 0.0 
0.973038 0.00260823 0.0 
0.988781 0.0540735 0.0 
1.0692 -0.229136 0.0 
0.969022 0.00464864 0.0 
0.961774 0.0125184 0.0 
0.997692 0.0132993 0.0 
1.03756 -0.00819235 0.0 
0.800189 0.108184 0.0 
0.90464 0.0183602 0.0 
0.990917 0.00540739 0.0 
1.02885 -0.182552 0.0 
0.995157 0.0154833 0.0 
0.935602 0.0240767 0.0 
0.81236 0.168073 0.0 
0.95011 -0.00852553 0.0 
0.998106 0.0101716 0.0 
0.938864 0.0046801 0.0 
0.189021 0.12848 0.0 
0.943975 -0.00843502 0.0 
1.06485 -0.00893846 0.0 
0.954239 0.288606 0.0 
0.0875888 0.00833178 0.0 
1.10178 0.25477 0.0 
0.987992 0.0148586 0.0 
0.930431 -0.131741 0.0 
0.968916 0.00181486 0.0 
0.959694 0.0091078 0.0 
0.959946 0.00450827 0.0 
0.544501 0.134918 0.0 
0.961982 0.00182888 0.0 
0.956098 -0.0136017 0.0 
0.653261 0.18423 0.0 
1.03434 -0.012001 0.0 
1.03248 0.0450778 0.0 
0.997681 0.265797 0.0 
0.980998 0.0208449 0.0 
0.975428 0.0290316 0.0 
0.964741 0.00390634 0.0 
0.893663 0.0128825 0.0 
0.959042 -0.0178951 0.0 
0.11952 5.22269e-05 0.0 
0.968778 -0.000250174 0.0 
1.05976 0.0177503 0.0 
0.87647 0.167938 0.0 
0.996459 0.0120861 0.0 
1.06475 0.0280194 0.0 
1.05722 0.0944015 0.0 
1.10257 -0.0704436 0.0 
1.0964 0.104109 0.0 
0.976581 -0.0029742 0.0 
0.877136 0.182891 0.0 
0.996615 0.0145042 0.0 
0.996936 0.0111651 0.0 
0.890116 -0.0412409 0.0 
0.978667 0.0258062 0.0 
1.16436 -0.2268 0.0 
0.682335 0.011028 0.0 
0.942131 0.0415054 0.0 
1.01782 0.302493 0.0 
0.908747 0.353165 0.0 
0.839372 0.132021 0.0 
1.15983 0.0739387 0.0 
0.154222 0.134107 0.0 
1.01888 0.289439 0.0 
1.06703 0.265608 0.0 
1.03902 -0.00535301 0.0 
0.938971 0.0940973 0.0 
0.0516224 0.00642855 0.0 
1.1766 0.146443 0.0 
0.977762 0.0318919 0.0 
0.910236 0.121916 0.0 
1.12747 0.21933 0.0 
0.851713 0.124201 0.0 
-0.0401474 -0.017826 0.0 
0.978856 0.0300272 0.0 
0.92528 0.0735248 0.0 
0.747305 0.140293 0.0 
0.979699 0.0267733 0.0 
0.912048 0.149977 0.0 
0.995863 0.0125669 0.0 
0.903358 0.101355 0.0 
0.97919 0.0279414 0.0 
0.854232 0.0555622 0.0 
0.831344 0.0224321 0.0 
0.904543 0.164049 0.0 
0.998764 0.0114197 0.0 
0.968987 -0.0047206 0.0 
0.980164 0.0251159 0.0 
0.999104 0.0176495 0.0 
0.96285 -0.00475716 0.0 
0.961827 -0.0084282 0.0 
0.966295 -0.00421105 0.0 
0.938507 -0.0414679 0.0 
0.926048 0.0580325 0.0 
0.926666 0.0879805 0.0 
1.04094 -0.000754758 0.0 
0.989701 0.0320719 0.0 
1.06356 0.0292325 0.0 
0.999227 0.0145435 0.0 
1.078 -0.00550976 0.0 
1.00508 0.0796711 0.0 
0.949837 0.0132443 0.0 
0.976917 0.0271094 0.0 
1.05044 -0.160822 0.0 
1.10225 0.242656 0.0 
1.12507 0.230833 0.0 
0.933623 -0.0322301 0.0 
0.999119 0.0140708 0.0 
0.951328 0.0109011 0.0 
0.996362 0.0136522 0.0 
0.97959 0.00535836 0.0 
1.05527 0.0111395 0.0 
1.04932 -0.171544 0.0 
0.0693447 0.0018338 0.0 