<VTKFile type="UnstructuredGrid" version="0.1" byte_order="LittleEndian">
  <UnstructuredGrid>
    <Piece NumberOfPoints="9712" NumberOfCells="19403">
      <Points>
        <DataArray type = "Float64" NumberOfComponents="3" format="ascii">
-5 -7 0.0 
15.5 -7 0.0 
15.5 7 0.0 
-5 7 0.0 
-1.6546 1.77742 0.0 
-2.13867 1.86504 0.0 
-1.83467 1.79143 0.0 
1.47969 -2.21179 0.0 
1.36003 -2.38618 0.0 
1.4346 -2.45048 0.0 
-2.04214 1.94165 0.0 
-0.20425 1.17338 0.0 
-2.07648 1.81911 0.0 
-2.00827 1.89081 0.0 
-2.05492 1.98872 0.0 
0.192693 0.536219 0.0 
0.154285 1.75648 0.0 
1.1379 -1.62057 0.0 
-2.11226 1.96977 0.0 
-1.74119 1.75327 0.0 
1.14499 -1.58184 0.0 
-1.94373 2.37229 0.0 
1.50619 -0.664239 0.0 
1.99658 -1.76705 0.0 
1.7229 -1.18344 0.0 
-1.97759 2.52091 0.0 
-0.768046 0.387136 0.0 
1.32657 -1.43969 0.0 
1.90142 0.24821 0.0 
-0.93264 1.51038 0.0 
1.09557 0.967223 0.0 
0.627111 0.757352 0.0 
-2.05707 2.31394 0.0 
1.34027 -2.45136 0.0 
-0.725097 0.397516 0.0 
-0.666094 2.30428 0.0 
-0.73829 -0.279965 0.0 
1.73336 -1.08822 0.0 
1.88466 -1.24421 0.0 
1.50539 -1.23752 0.0 
1.65978 -1.30759 0.0 
-0.0409718 0.542603 0.0 
1.6005 -1.1227 0.0 
1.78439 -0.941488 0.0 
1.86015 -1.54236 0.0 
1.49308 -1.40058 0.0 
2.34892 -1.47149 0.0 
2.13832 -1.3246 0.0 
1.73061 0.751302 0.0 
-0.580328 0.526903 0.0 
1.51013 -2.1595 0.0 
-1.65424 3.45779 0.0 
-1.51397 2.46352 0.0 
1.42773 -2.17867 0.0 
0.304353 0.497878 0.0 
2.24628 0.228293 0.0 
1.51258 -2.27933 0.0 
-1.60346 3.44299 0.0 
-1.71408 2.36227 0.0 
2.17421 0.530405 0.0 
2.42 0.316451 0.0 
-1.63642 3.31911 0.0 
2.53942 -0.995036 0.0 
0.750003 0.810439 0.0 
2.04736 0.40918 0.0 
1.19615 -1.50641 0.0 
2.13474 0.494063 0.0 
0.547924 0.306722 0.0 
-0.2059 0.361394 0.0 
2.2127 0.547693 0.0 
1.41442 -0.597105 0.0 
1.52233 -1.46252 0.0 
-1.84114 2.53924 0.0 
-5 -2.53894 0.0 
2.32127 0.371156 0.0 
-1.69186 3.33379 0.0 
-0.964779 0.566136 0.0 
-1.81311 2.48387 0.0 
-1.78557 3.38304 0.0 
1.48278 0.914136 0.0 
2.51531 -1.89689 0.0 
1.20982 -0.330514 0.0 
0.408434 0.319657 0.0 
0.95023 0.60993 0.0 
-0.752349 0.440796 0.0 
-0.998248 0.564019 0.0 
-1.73165 3.36299 0.0 
1.24353 -1.49063 0.0 
0.942095 0.817189 0.0 
-1.77816 2.47096 0.0 
2.48183 -1.95479 0.0 
1.33574 -1.77854 0.0 
0.823335 1.12085 0.0 
-0.36308 0.598468 0.0 
0.745466 0.783414 0.0 
-1.88344 2.8521 0.0 
-1.79794 3.52221 0.0 
3.0087 0.272815 0.0 
-1.81486 2.66014 0.0 
0.375911 -0.403668 0.0 
-0.68323 0.487288 0.0 
-0.34187 -0.274923 0.0 
-0.293875 -0.201368 0.0 
1.61018 -1.767 0.0 
-0.448275 -0.347267 0.0 
-1.08687 0.352015 0.0 
1.29257 -1.76345 0.0 
1.67658 -1.49551 0.0 
1.19193 0.533009 0.0 
1.21582 -1.91654 0.0 
-0.36438 -0.346225 0.0 
-0.92534 0.330346 0.0 
2.3836 0.287756 0.0 
1.68841 0.639887 0.0 
1.59001 -1.89458 0.0 
1.14818 -1.92143 0.0 
1.28996 -2.19426 0.0 
1.37603 -1.8763 0.0 
1.23834 -2.09141 0.0 
1.11702 -2.06287 0.0 
0.691829 0.463808 0.0 
1.46523 -2.03459 0.0 
-0.123547 0.424486 0.0 
-1.3311 2.12174 0.0 
1.08169 -1.90074 0.0 
1.87975 -2.15971 0.0 
1.10131 -1.78593 0.0 
1.13722 0.534683 0.0 
1.42465 -1.59031 0.0 
-1.45435 2.47344 0.0 
1.41998 -1.98207 0.0 
0.463917 1.8787 0.0 
-1.72896 2.89571 0.0 
1.12419 -1.84975 0.0 
1.59054 -1.20634 0.0 
0.46124 0.621002 0.0 
0.806438 -1.00204 0.0 
2.1804 0.349761 0.0 
2.21142 -1.6418 0.0 
1.10152 -0.274558 0.0 
2.23388 0.387302 0.0 
0.137769 0.567007 0.0 
1.88736 0.267391 0.0 
1.26821 -1.94267 0.0 
0.21033 -0.605707 0.0 
2.61094 -1.50046 0.0 
0.819837 0.743337 0.0 
-1.4303 2.07799 0.0 
1.82013 0.322126 0.0 
-1.47649 2.2099 0.0 
1.15745 -0.274223 0.0 
-1.81198 2.24994 0.0 
2.34337 -1.67775 0.0 
-1.13329 1.37877 0.0 
-0.828215 1.05292 0.0 
2.46752 -1.53452 0.0 
-1.69915 2.18529 0.0 
-0.404416 -0.286271 0.0 
-1.23501 1.31766 0.0 
2.11757 -1.50659 0.0 
-1.08535 1.28274 0.0 
2.58548 -1.70783 0.0 
0.24729 -0.572345 0.0 
-1.66963 2.25319 0.0 
1.58322 -1.62308 0.0 
-0.367923 -0.306026 0.0 
0.391521 1.44485 0.0 
1.88977 -2.46319 0.0 
1.5943 -1.53613 0.0 
-0.357143 -0.23651 0.0 
0.82621 0.80563 0.0 
-1.59261 2.31884 0.0 
-0.47244 -0.307516 0.0 
-0.40334 -0.326688 0.0 
-2.00063 2.11543 0.0 
1.55514 -1.95078 0.0 
-1.40431 2.26352 0.0 
-0.0265928 0.573714 0.0 
1.17093 1.10579 0.0 
-1.77907 2.22111 0.0 
0.682788 0.329642 0.0 
-0.54475 2.15572 0.0 
-0.288592 0.289433 0.0 
-1.43199 2.16349 0.0 
-1.45029 2.25134 0.0 
1.5535 -1.79992 0.0 
-1.06406 1.08381 0.0 
1.72954 1.44966 0.0 
0.582806 0.515814 0.0 
0.582876 -0.679913 0.0 
1.32351 -0.355916 0.0 
-0.47505 0.577092 0.0 
-0.371167 0.227715 0.0 
1.52235 -1.8529 0.0 
-0.429822 -0.244811 0.0 
-0.53237 -0.24648 0.0 
-0.393983 -0.210364 0.0 
0.652895 0.317361 0.0 
1.55812 -1.70765 0.0 
1.63021 0.325622 0.0 
0.442731 0.358729 0.0 
1.22925 -1.85192 0.0 
1.43517 -1.79082 0.0 
1.39317 -1.6984 0.0 
1.62965 0.295952 0.0 
0.905462 0.793465 0.0 
1.04036 -1.64811 0.0 
2.1131 -1.72466 0.0 
-0.743911 0.369492 0.0 
1.14427 -1.99314 0.0 
1.26033 -2.0209 0.0 
-1.70955 2.07308 0.0 
0.910023 -1.62976 0.0 
-0.313059 -0.0954838 0.0 
-1.77334 2.3988 0.0 
-0.311958 -0.24042 0.0 
2.53315 0.325608 0.0 
-0.273728 -0.226719 0.0 
-0.646401 0.379627 0.0 
1.52426 0.616074 0.0 
2.21703 -1.79499 0.0 
2.71108 0.312216 0.0 
0.759924 1.093 0.0 
-1.69271 2.12368 0.0 
0.255794 0.540969 0.0 
0.0534699 0.562158 0.0 
-1.5679 2.22408 0.0 
-1.66906 2.45165 0.0 
-1.51895 2.09449 0.0 
2.16948 0.408238 0.0 
-0.818806 0.680638 0.0 
-0.826868 0.642087 0.0 
0.519855 0.276992 0.0 
-0.716682 1.18602 0.0 
-0.649974 -0.148775 0.0 
0.457368 0.256619 0.0 
0.517407 0.248194 0.0 
0.327129 0.39802 0.0 
0.533249 -0.878832 0.0 
-0.870735 0.634904 0.0 
1.19219 1.07557 0.0 
2.35922 0.366028 0.0 
-1.66911 3.66723 0.0 
-0.857603 1.54934 0.0 
-0.379189 2.30131 0.0 
-0.941007 1.36523 0.0 
-1.58662 2.49682 0.0 
-0.545297 0.352587 0.0 
0.327944 -0.744683 0.0 
-0.312756 0.524741 0.0 
-0.107843 0.506233 0.0 
2.13378 -2.36584 0.0 
1.52689 0.686953 0.0 
-0.119983 0.327909 0.0 
1.02161 -1.53072 0.0 
1.51507 0.39695 0.0 
-0.674484 1.02605 0.0 
-0.564724 -0.148435 0.0 
0.409388 0.290913 0.0 
0.252349 0.30842 0.0 
-1.09282 1.45998 0.0 
1.45674 -1.54484 0.0 
-0.266777 0.782169 0.0 
0.91327 -0.874389 0.0 
1.01208 1.13309 0.0 
-0.897136 1.35063 0.0 
-0.846484 0.489353 0.0 
1.47563 0.663768 0.0 
-1.22282 2.05021 0.0 
0.348906 0.416714 0.0 
1.41913 0.964648 0.0 
0.933289 -0.839038 0.0 
-1.85066 1.40221 0.0 
0.142477 1.99435 0.0 
-0.717809 0.341194 0.0 
-2.21177 1.41584 0.0 
0.396571 0.350929 0.0 
1.25171 -1.60721 0.0 
0.736798 0.393502 0.0 
-0.661427 0.19031 0.0 
2.18751 -2.32769 0.0 
-1.00908 1.6747 0.0 
2.21416 -2.07269 0.0 
-0.779194 0.642011 0.0 
-1.02312 1.3939 0.0 
2.08809 -2.24876 0.0 
-5 -4.48794 0.0 
1.61792 -1.46215 0.0 
-0.974627 1.38947 0.0 
1.81166 -2.48446 0.0 
-1.03635 1.47474 0.0 
0.869004 -1.74424 0.0 
0.956579 -1.78598 0.0 
1.07495 0.540689 0.0 
-1.08005 1.37763 0.0 
0.914755 -0.803058 0.0 
0.611759 -0.305322 0.0 
1.70043 -1.41356 0.0 
0.75708 -0.631542 0.0 
1.21215 1.01979 0.0 
-0.586902 0.440014 0.0 
1.9251 -2.56336 0.0 
-1.58261 1.91091 0.0 
-0.746541 1.26087 0.0 
-1.49915 1.13657 0.0 
-1.46675 0.971536 0.0 
-1.05881 0.930935 0.0 
0.71826 0.415078 0.0 
-0.701697 0.526982 0.0 
-1.56194 2.05157 0.0 
1.15988 0.991244 0.0 
1.38676 0.949615 0.0 
-1.61697 2.02689 0.0 
1.13748 -0.357331 0.0 
-1.8456 2.04561 0.0 
0.253686 -0.756334 0.0 
-1.53603 1.86509 0.0 
-1.43465 0.924137 0.0 
-1.00273 1.27416 0.0 
-1.03063 1.5132 0.0 
-1.32483 1.94769 0.0 
-0.965552 1.61445 0.0 
-0.239859 -0.245939 0.0 
-5 3.01776 0.0 
-5 -0.248741 0.0 
0.517491 1.87079 0.0 
-1.18776 1.8875 0.0 
2.27458 0.36201 0.0 
1.9794 0.331487 0.0 
0.503086 0.510306 0.0 
1.26387 -0.370702 0.0 
1.24483 0.550197 0.0 
1.12871 0.979556 0.0 
-1.48659 1.83259 0.0 
1.0672 0.958366 0.0 
-1.16856 1.61214 0.0 
-0.218637 -0.230696 0.0 
-5 1.81431 0.0 
1.37014 1.04658 0.0 
0.0950623 0.557621 0.0 
-1.23613 1.67303 0.0 
0.953731 -0.709843 0.0 
2.07568 -1.85385 0.0 
2.10836 -1.82014 0.0 
-0.994952 1.33552 0.0 
-1.86986 1.52312 0.0 
0.515812 0.447542 0.0 
0.842446 0.992035 0.0 
-1.42353 1.8223 0.0 
2.091 0.354014 0.0 
-0.937663 0.401428 0.0 
-1.69305 1.41997 0.0 
-1.82465 1.55127 0.0 
2.15192 0.384657 0.0 
-1.17972 1.37998 0.0 
-0.718866 -0.0130647 0.0 
-0.927867 0.290435 0.0 
1.56509 0.300406 0.0 
-5 -3.04052 0.0 
9.98027 -7 0.0 
0.176009 0.694641 0.0 
0.597997 -0.559941 0.0 
-0.546583 0.4849 0.0 
0.602022 -0.657834 0.0 
2.17737 0.379672 0.0 
1.89809 0.287017 0.0 
-1.58883 1.35796 0.0 
-1.2284 1.37063 0.0 
-1.43937 1.35342 0.0 
-1.59664 1.47263 0.0 
0.577431 -0.368705 0.0 
1.5263 -1.51093 0.0 
0.479666 0.796509 0.0 
0.894995 1.01463 0.0 
2.22312 0.363016 0.0 
-0.320562 0.726481 0.0 
-1.30188 2.41386 0.0 
0.43802 0.434693 0.0 
-0.761697 0.762024 0.0 
1.45688 -1.49591 0.0 
-0.65072 0.676835 0.0 
1.6097 -1.41509 0.0 
2.25768 0.399237 0.0 
1.85518 0.299709 0.0 
2.14618 0.290757 0.0 
2.25222 0.371677 0.0 
-1.93063 2.91367 0.0 
1.52717 0.319618 0.0 
1.67964 -1.62237 0.0 
1.35962 -0.439169 0.0 
1.63007 -1.54335 0.0 
-5 -0.764504 0.0 
-1.61377 2.62271 0.0 
1.73865 -1.57725 0.0 
-0.908306 1.23669 0.0 
1.60766 0.330292 0.0 
1.82509 -1.63054 0.0 
1.90521 0.312457 0.0 
1.98719 -1.6488 0.0 
-0.528791 0.39225 0.0 
1.94978 -2.39003 0.0 
-0.472559 0.718465 0.0 
-1.28058 2.26572 0.0 
0.881581 -0.556282 0.0 
2.26369 0.42542 0.0 
0.917309 -1.69962 0.0 
0.853954 -1.60945 0.0 
1.30086 -0.404316 0.0 
1.99565 -2.46852 0.0 
1.49445 -1.47573 0.0 
1.68285 0.863315 0.0 
2.03074 -2.37549 0.0 
2.52279 -0.506167 0.0 
2.56049 -1.76899 0.0 
-1.52889 2.56597 0.0 
2.81136 -0.570221 0.0 
1.3688 -1.46095 0.0 
1.29524 -0.373946 0.0 
-0.350504 0.671928 0.0 
-0.590282 0.564035 0.0 
-0.054366 2.16706 0.0 
1.50819 1.22548 0.0 
-0.548222 0.453941 0.0 
2.19936 -2.5207 0.0 
12.2704 -7 0.0 
1.6811 -1.36761 0.0 
-0.449261 0.559535 0.0 
0.537017 -0.527614 0.0 
-0.00733391 0.553304 0.0 
0.494109 -0.356396 0.0 
-0.7939 0.0827441 0.0 
0.39888 0.467333 0.0 
-1.04288 1.34095 0.0 
0.605019 1.02824 0.0 
0.847559 0.374727 0.0 
1.00336 0.618307 0.0 
2.1955 0.399186 0.0 
0.656973 0.401158 0.0 
-0.998431 2.73564 0.0 
[...]
<PointData>
  <DataArray type = "Float64" Name="VitesseP1" NumberOfComponents="3" format="ascii">
1 0 0.0 
1.0892 0 0.0 
1.03313 0 0.0 
1 0 0.0 
0.994628 0.0155386 0.0 
0.996917 0.0109275 0.0 
0.995504 0.0133718 0.0 
1.04229 -0.00313039 0.0 
1.04428 -0.004347 0.0 
1.04978 -0.00379951 0.0 
0.997756 0.0118458 0.0 
0.986855 0.072145 0.0 
0.996612 0.0112529 0.0 
0.996821 0.0120334 0.0 
0.998906 0.0118498 0.0 
0.99281 0.217816 0.0 
1.01996 0.0527871 0.0 
1.04991 -0.0253007 0.0 
0.998832 0.011277 0.0 
0.995041 0.0142864 0.0 
1.05514 -0.0262419 0.0 
0.998826 0.0131706 0.0 
1.16065 -0.0246661 0.0 
1.04686 0.0127865 0.0 
1.06384 -0.000966444 0.0 
0.998785 0.0127609 0.0 
0.944723 0.0085679 0.0 
1.06349 -0.0212205 0.0 
0.0648009 -0.000924628 0.0 
0.988881 0.0310144 0.0 
1.14323 0.0668776 0.0 
1.1106 0.141572 0.0 
0.998823 0.012188 0.0 
1.03431 -0.0173522 0.0 
0.941575 0.0121492 0.0 
1.00529 0.0298972 0.0 
0.937156 -0.0513019 0.0 
1.08481 -0.000682944 0.0 
1.05669 0.00972742 0.0 
1.05451 -0.0147063 0.0 
1.05742 -0.00415797 0.0 
0.9273 0.15135 0.0 
1.07537 -0.0101035 0.0 
1.12651 0.00289643 0.0 
1.06841 0.00779988 0.0 
1.06399 -0.0129505 0.0 
1.06314 0.0351261 0.0 
1.05763 0.0252392 0.0 
1.19987 0.0262382 0.0 
0.939765 0.0354352 0.0 
1.04105 -0.00308435 0.0 
1.00246 0.0121146 0.0 
0.999747 0.017276 0.0 
1.0405 -0.00470299 0.0 
1.03832 0.242822 0.0 
0.0285414 0.0127903 0.0 
1.04397 -0.00209787 0.0 
1.00268 0.012511 0.0 
0.999044 0.0153984 0.0 
1.17019 -0.00507515 0.0 
0.154321 -0.0123426 0.0 
1.00232 0.0127883 0.0 
1.09472 0.0617979 0.0 
1.12351 0.120006 0.0 
0.567033 0.00430473 0.0 
1.06113 -0.0261346 0.0 
1.07932 -0.00148067 0.0 
0.557797 0.134671 0.0 
0.863104 0.0852793 0.0 
1.19024 -0.010633 0.0 
1.20228 -0.0363691 0.0 
1.0673 -0.0105774 0.0 
0.998991 0.0138863 0.0 
1 0 0.0 
0.318451 -0.0162662 0.0 
1.0021 0.0123702 0.0 
0.968249 0.0104328 0.0 
0.999014 0.0142363 0.0 
1.00173 0.01156 0.0 
1.17439 0.0342476 0.0 
1.03769 0.0242805 0.0 
0.75679 -0.0399967 0.0 
0.949544 0.262915 0.0 
1.17408 0.114284 0.0 
0.946358 0.0140874 0.0 
0.970055 0.00873448 0.0 
1.002 0.0119862 0.0 
1.06248 -0.0243261 0.0 
1.14427 0.0965974 0.0 
0.999078 0.01458 0.0 
1.04404 0.0285742 0.0 
1.04285 -0.0137378 0.0 
1.09733 0.0786877 0.0 
0.935783 0.0698044 0.0 
1.12585 0.124157 0.0 
0.999814 0.0126988 0.0 
1.00213 0.0107956 0.0 
0.0377072 -0.148766 0.0 
0.999174 0.0138235 0.0 
1.19223 -0.234198 0.0 
0.944267 0.0228371 0.0 
0.919131 -0.0883516 0.0 
0.915945 -0.0744976 0.0 
1.04716 -0.00317391 0.0 
0.924721 -0.0782339 0.0 
0.967292 -0.00824585 0.0 
1.04256 -0.015701 0.0 
1.06898 -0.00197406 0.0 
1.19744 0.0820814 0.0 
1.038 -0.0152903 0.0 
0.920455 -0.0885807 0.0 
0.955013 -0.00375266 0.0 
0.0920563 0.000289927 0.0 
1.20312 0.0328218 0.0 
1.04398 -0.00303436 0.0 
1.03645 -0.0171539 0.0 
1.03819 -0.00736743 0.0 
1.04185 -0.0106589 0.0 
1.03557 -0.0111499 0.0 
1.03265 -0.0161355 0.0 
1.16474 0.183616 0.0 
1.03919 -0.00558376 0.0 
0.87767 0.125806 0.0 
0.999043 0.0207094 0.0 
1.03536 -0.019717 0.0 
1.04104 0.0059041 0.0 
1.03771 -0.0220572 0.0 
1.19693 0.0896619 0.0 
1.06124 -0.0136189 0.0 
0.99999 0.0178942 0.0 
1.03924 -0.00766357 0.0 
1.02981 0.0460397 0.0 
1.00068 0.0137286 0.0 
1.03724 -0.0197173 0.0 
1.05899 -0.00959947 0.0 
1.08819 0.188638 0.0 
1.06892 -0.072512 0.0 
0.175088 0.00771522 0.0 
1.05426 0.0238041 0.0 
0.458515 -0.0387717 0.0 
0.406561 -0.00813943 0.0 
0.978176 0.19623 0.0 
0.0702855 -0.0056942 0.0 
1.03804 -0.0131106 0.0 
1.0313 -0.160259 0.0 
1.05077 0.050385 0.0 
1.14012 0.119922 0.0 
0.99876 0.0193352 0.0 
0.0812046 0.00204959 0.0 
0.998913 0.0184236 0.0 
0.411703 -0.0164347 0.0 
0.998739 0.0144947 0.0 
1.04609 0.0284571 0.0 
0.985293 0.0243111 0.0 
0.973617 0.034109 0.0 
1.05609 0.0394741 0.0 
0.998571 0.0157282 0.0 
0.923111 -0.0794908 0.0 
0.984297 0.0207528 0.0 
1.06721 0.0216464 0.0 
0.981748 0.0251712 0.0 
1.03335 0.0350706 0.0 
1.04068 -0.170762 0.0 
0.998849 0.0160178 0.0 
1.05903 -0.005649 0.0 
0.920544 -0.0858585 0.0 
1.03474 0.0688707 0.0 
1.0479 -0.000863841 0.0 
1.06764 -0.00597993 0.0 
0.916775 -0.0816835 0.0 
1.13348 0.111776 0.0 
0.999153 0.0167935 0.0 
0.927984 -0.0726828 0.0 
0.922573 -0.0825506 0.0 
0.998616 0.0125726 0.0 
1.04165 -0.00381293 0.0 
0.999398 0.0192425 0.0 
0.939375 0.151283 0.0 
1.13107 0.0482871 0.0 
0.998682 0.0148475 0.0 
0.635011 0.110602 0.0 
1.00599 0.0339258 0.0 
0.86365 0.0452638 0.0 
0.998874 0.0191318 0.0 
0.999208 0.0186679 0.0 
1.04539 -0.00515319 0.0 
0.974135 0.0236896 0.0 
1.07103 -0.0382108 0.0 
1.14214 0.199219 0.0 
1.1095 -0.128373 0.0 
0.875287 -0.0297804 0.0 
0.938459 0.0516586 0.0 
0.875316 0.0162463 0.0 
1.04422 -0.00582102 0.0 
0.924349 -0.0730673 0.0 
0.933441 -0.0625511 0.0 
0.919084 -0.0742255 0.0 
0.582364 0.110882 0.0 
1.05045 -0.0059168 0.0 
0.115173 0.0169276 0.0 
1.03795 0.264787 0.0 
1.03957 -0.016175 0.0 
1.04424 -0.00982207 0.0 
1.04899 -0.0130812 0.0 
0.094432 0.0254135 0.0 
1.14348 0.103311 0.0 
1.04409 -0.0282408 0.0 
1.04779 0.0180545 0.0 
0.941622 0.00840626 0.0 
1.03396 -0.0160588 0.0 
1.03595 -0.0118167 0.0 
0.998717 0.0156085 0.0 
1.04124 -0.0335356 0.0 
0.89889 -0.0655387 0.0 
0.999012 0.0147442 0.0 
0.910026 -0.0857052 0.0 
0.221069 -0.0290888 0.0 
0.88817 -0.083911 0.0 
0.932838 0.0159124 0.0 
1.20173 0.0448511 0.0 
1.04363 0.0213517 0.0 
0.294359 -0.0443722 0.0 
1.09676 0.0863167 0.0 
0.998529 0.0158099 0.0 
1.01956 0.222722 0.0 
0.951973 0.17701 0.0 
0.998848 0.0172455 0.0 
0.99928 0.0156789 0.0 
0.998727 0.0180537 0.0 
0.562926 -0.00201284 0.0 
0.967835 0.0248639 0.0 
0.965538 0.0223812 0.0 
0.414823 0.13584 0.0 
0.976721 0.04051 0.0 
0.940404 -0.044429 0.0 
0.301854 0.101604 0.0 
0.375591 0.184548 0.0 
1.06387 0.296605 0.0 
1.06948 -0.102241 0.0 
0.96729 0.0193071 0.0 
1.13873 0.0485483 0.0 
0.30875 -0.0176055 0.0 
1.0008 0.0113851 0.0 
0.990488 0.0333124 0.0 
1.00942 0.0342846 0.0 
0.983932 0.0307254 0.0 
0.999578 0.0164025 0.0 
0.918985 0.0211673 0.0 
1.05915 -0.131014 0.0 
0.91928 0.0754236 0.0 
0.909091 0.13174 0.0 
1.04652 0.0144602 0.0 
1.1931 0.0420432 0.0 
0.830238 0.116558 0.0 
1.05564 -0.0329986 0.0 
0.567905 0.0216484 0.0 
0.975944 0.0431631 0.0 
0.932814 -0.0503192 0.0 
0.702578 0.194634 0.0 
0.89975 0.33889 0.0 
0.987388 0.0259506 0.0 
1.06549 -0.0126946 0.0 
0.967572 0.0859089 0.0 
1.11338 -0.0757903 0.0 
1.11173 0.061481 0.0 
0.983321 0.0323674 0.0 
0.95644 0.011902 0.0 
1.19372 0.0471975 0.0 
0.99915 0.022694 0.0 
1.07813 0.283619 0.0 
1.16731 0.0358327 0.0 
1.12387 -0.0767865 0.0 
0.994117 0.00994305 0.0 
1.01826 0.0444387 0.0 
0.937642 0.00730141 0.0 
0.99724 0.00829643 0.0 
1.01901 0.284107 0.0 
1.05507 -0.0208969 0.0 
1.00174 0.151125 0.0 
0.925354 -0.00673334 0.0 
1.03652 0.0331398 0.0 
0.992886 0.0283733 0.0 
1.03709 0.017998 0.0 
0.962965 0.0255627 0.0 
0.98514 0.0279424 0.0 
1.03682 0.00881711 0.0 
1 0 0.0 
1.06836 -0.00536345 0.0 
0.984871 0.0295793 0.0 
1.04618 -0.0001467 0.0 
0.987685 0.0277193 0.0 
1.03177 -0.0306831 0.0 
1.0339 -0.0268055 0.0 
1.19413 0.0988801 0.0 
0.98493 0.0259869 0.0 
1.12958 -0.0814029 0.0 
0.914646 -0.146326 0.0 
1.06686 -0.0011362 0.0 
1.12831 -0.114074 0.0 
1.14752 0.050948 0.0 
0.931573 0.0271366 0.0 
1.03712 0.0019522 0.0 
0.995957 0.0169797 0.0 
0.979951 0.0388618 0.0 
0.984158 0.0109454 0.0 
0.995532 0.0102089 0.0 
0.990146 0.0210373 0.0 
1.09087 0.16786 0.0 
0.948794 0.0243716 0.0 
0.998706 0.0174345 0.0 
1.14623 0.0584076 0.0 
1.16598 0.0395878 0.0 
0.998456 0.0166888 0.0 
0.934174 -0.0564595 0.0 
0.999081 0.0140138 0.0 
1.04326 -0.127813 0.0 
0.995059 0.0175669 0.0 
1.00023 0.0108576 0.0 
0.980897 0.0280414 0.0 
0.988929 0.0279541 0.0 
0.996591 0.0211101 0.0 
0.991981 0.0297576 0.0 
0.882543 -0.105702 0.0 
1 0 0.0 
1 0 0.0 
1.03175 0.0453819 0.0 
0.995274 0.0237273 0.0 
0.255914 -0.00797243 0.0 
0.0674361 0.0113791 0.0 
1.11767 0.216545 0.0 
0.963146 -0.0443753 0.0 
1.20155 0.0756538 0.0 
1.14482 0.0625014 0.0 
0.994494 0.018267 0.0 
1.1417 0.0705462 0.0 
0.991886 0.0242816 0.0 
0.948672 -0.164085 0.0 
1 0 0.0 
1.15751 0.0334901 0.0 
0.9623 0.189609 0.0 
0.992815 0.0228012 0.0 
1.1443 -0.0843553 0.0 
1.04378 0.0151445 0.0 
1.04415 0.0168387 0.0 
0.983006 0.0286906 0.0 
0.995378 0.011177 0.0 
1.12924 0.231842 0.0 
1.11897 0.0900697 0.0 
0.994246 0.0193076 0.0 
0.16874 0.00532573 0.0 
0.958666 0.00102406 0.0 
0.992157 0.0119636 0.0 
0.995306 0.0118812 0.0 
0.373302 0.00175412 0.0 
0.985636 0.0229326 0.0 
0.948725 -0.029375 0.0 
0.953811 -0.00695651 0.0 
0.0983579 -0.0105326 0.0 
1 0 0.0 
1.06839 0 0.0 
1.00843 0.165692 0.0 
1.12036 -0.145555 0.0 
0.932332 0.0356025 0.0 
1.11346 -0.129664 0.0 
0.338521 0.000302645 0.0 
0.0798375 -0.00282324 0.0 
0.989718 0.0126862 0.0 
0.985767 0.0214605 0.0 
0.987534 0.0157991 0.0 
0.991723 0.0141013 0.0 
1.10958 -0.173083 0.0 
1.06739 -0.00969982 0.0 
1.08047 0.146428 0.0 
1.1219 0.0829833 0.0 
0.24817 -0.00091387 0.0 
0.957092 0.0788067 0.0 
1.00049 0.0199438 0.0 
1.11208 0.256784 0.0 
0.972484 0.0322498 0.0 
1.06663 -0.0135861 0.0 
0.95957 0.0375811 0.0 
1.06638 -0.00632053 0.0 
0.500786 -0.0127476 0.0 
0.0801757 0.00474505 0.0 
0.0565363 0.0201881 0.0 
0.304857 -0.00682327 0.0 
0.999805 0.0121347 0.0 
0.084892 0.00181424 0.0 
1.05969 -0.00114285 0.0 
1.16291 -0.0414906 0.0 
1.06761 -0.0041186 0.0 
1 0 0.0 
0.999694 0.0157216 0.0 
1.06559 0.00163343 0.0 
0.979299 0.0316081 0.0 
0.103276 0.00767294 0.0 
1.05935 0.00582502 0.0 
0.0792022 -0.00144813 0.0 
1.05657 0.0133492 0.0 
0.920676 0.0278288 0.0 
1.04254 0.000912074 0.0 
0.957686 0.0579484 0.0 
0.999873 0.0209186 0.0 
1.19569 -0.109192 0.0 
0.701592 -0.0157779 0.0 
1.03589 -0.0306722 0.0 
1.04172 -0.0361155 0.0 
1.07184 -0.0435162 0.0 
1.05516 0.010067 0.0 
1.06717 -0.0119122 0.0 
1.18842 0.0203885 0.0 
1.04185 0.0143525 0.0 
1.24429 0.0857194 0.0 
1.03503 0.0305259 0.0 
0.999894 0.016753 0.0 
1.17234 0.108717 0.0 
1.06471 -0.0187539 0.0 
0.976203 -0.0444744 0.0 
0.948153 0.0737962 0.0 
0.944532 0.0370852 0.0 
1.01414 0.0409263 0.0 
1.13421 -0.00199899 0.0 
0.929237 0.0324641 0.0 
1.00705 -0.00595859 0.0 
1.06574 0 0.0 
1.06348 -0.00247708 0.0 
0.934195 0.054148 0.0 
1.13995 -0.163164 0.0 
0.936181 0.160259 0.0 
1.10397 -0.194627 0.0 
0.952799 -0.0201506 0.0 
1.0884 0.250627 0.0 
0.983465 0.027007 0.0 
1.08814 0.103941 0.0 
0.791781 0.101234 0.0 
1.17667 0.105346 0.0 
0.494616 -0.00458225 0.0 
1.07729 0.186056 0.0 
1.00388 0.0210184 0.0 
1.05626 0.0161862 0.0 
1.04282 0.00944667 0.0 
1.04768 -0.000175399 0.0 
1.04619 0.000909976 0.0 
0.0815982 0.0191284 0.0 
1.04187 0.00276845 0.0 
-0.0126925 0.0230184 0.0 
1.07622 -0.0497036 0.0 
1.0041 0.0344164 0.0 
1.04448 0.0101002 0.0 
1 0 0.0 
0.983446 0.025852 0.0 
1.19468 0.0947353 0.0 
0.794247 -0.0486494 0.0 
0.99955 0.01517 0.0 
0.992012 0.0384399 0.0 
1.04995 0.0109614 0.0 
1.05476 0.00609771 0.0 
0.940417 0.188944 0.0 
0.782458 0.130462 0.0 
1.00424 0.0181497 0.0 
1.15076 0.131398 0.0 
1.00049 0.243214 0.0 
0.999075 0.0118447 0.0 
0.986176 0.0287741 0.0 
1.0513 0.00195699 0.0 
0.938359 0.124476 0.0 
0.189614 0.00275748 0.0 
1.0503 0.00409926 0.0 
0.174412 0.0992622 0.0 
1.05052 -0.000150175 0.0 
1.03561 -0.0179118 0.0 
1.0164 0.0460378 0.0 
1.13002 -0.0555187 0.0 
1.04709 0.00303083 0.0 
0.957296 -0.00635297 0.0 
0.35314 0.0134661 0.0 
1.06336 -0.022172 0.0 
0.946878 -0.00156079 0.0 
0.999752 0.0148693 0.0 
1.06092 -0.0271059 0.0 
0.942181 0.0655186 0.0 
1.19738 -0.0440416 0.0 
0.285007 -0.0231518 0.0 
0.63068 -0.0210726 0.0 
0.941408 -0.00473123 0.0 
0.965199 0.272337 0.0 
0.252064 0.0479504 0.0 
0.997532 0.315922 0.0 
0.957499 -0.00860136 0.0 
1.07924 -0.0421944 0.0 
0.723035 0.00215089 0.0 
0.358048 0.116456 0.0 
1.10309 0.0694095 0.0 
0.998684 0.011943 0.0 
0.574219 0.00356303 0.0 
0.17366 0.0248835 0.0 
0.914846 -0.0434375 0.0 
0.789863 -0.0303109 0.0 
1.03127 0.0465405 0.0 
0.998769 0.011535 0.0 
1.02671 -0.0975435 0.0 
1.11813 -0.0330352 0.0 
1.17501 0.0229505 0.0 
0.0801113 -0.00137153 0.0 
0.936671 -0.0576128 0.0 
1.03406 0.0428024 0.0 
1.0673 -0.00749935 0.0 
0.938398 -0.00910882 0.0 
0.0866232 0.0101795 0.0 
0.998787 0.0124487 0.0 
1.1736 0.0277862 0.0 
1.0593 -0.0263742 0.0 
0.964399 0.216012 0.0 
1.05201 0.0168606 0.0 
1.06876 0.000864772 0.0 
1.06881 0.00567891 0.0 
0.954829 0.037355 0.0 
1.06124 -0.0241297 0.0 
0.998908 0.0136158 0.0 
0.952506 0.00690044 0.0 
1.14183 -0.031994 0.0 
1.05509 0.0210924 0.0 
0.989443 0.00711484 0.0 
0.953691 0.0151416 0.0 
0.998945 0.0138002 0.0 
1.05877 0.00586563 0.0 
1.04196 -0.00457717 0.0 
1.06106 -0.0213665 0.0 
0.990602 0.00874549 0.0 
1.02173 0.046675 0.0 
0.998891 0.0130544 0.0 
1.04525 -0.026017 0.0 
1.06596 0.0200024 0.0 
0.0492672 0.0186671 0.0 
0.0569745 0.00902622 0.0 
1.06903 0.0159154 0.0 
0.90572 -0.0564701 0.0 
0.893105 -0.0470385 0.0 
0.882087 0.120226 0.0 
0.999375 0.0137483 0.0 
0.998847 0.013715 0.0 
0.96306 -0.0133019 0.0 
0.965211 -0.00212661 0.0 
1.03441 0.027004 0.0 
0.964388 0.234905 0.0 
1.06795 0.151781 0.0 
1.03037 -0.0440423 0.0 
0.0640055 0.00501656 0.0 
1.16195 0.0230822 0.0 
1.0925 0.142086 0.0 
0.998712 0.0132385 0.0 
1.01604 0.0362959 0.0 
1.11284 -0.00792815 0.0 
0.982989 0.0207042 0.0 
0.934853 0.0462823 0.0 
1.03094 -0.0287175 0.0 
0.973612 0.0371287 0.0 
0.941673 0.108861 0.0 
0.934542 0.0588018 0.0 
0.837048 -0.0457329 0.0 
0.963111 0.00694006 0.0 
0.792995 -0.0474064 0.0 
1.00095 0.0179029 0.0 
1.03162 0.0419086 0.0 
0.95409 -0.0103305 0.0 
0.961807 -0.00117393 0.0 
0.92299 0.0340883 0.0 
1.10186 0.249026 0.0 
0.972531 0.00589551 0.0 
0.942994 0.291917 0.0 
0.945722 0.0326165 0.0 
0.975842 0.226417 0.0 
0.850496 0.286112 0.0 
0.995244 0.00733174 0.0 
1.00084 0 0.0 
0.998826 0.0119151 0.0 
0.977443 0.00137233 0.0 
0.895503 0.153973 0.0 
0.135571 0.00878655 0.0 
1.01077 0.0425371 0.0 
0.980921 0.00695509 0.0 
0.999405 0.0123062 0.0 
0.916176 -0.0718674 0.0 
0.917014 0.0328925 0.0 
1.19928 -0.0325792 0.0 
0.998706 0.0121854 0.0 
0.971889 0.079531 0.0 
0.769266 -0.0844736 0.0 
1.03366 -0.0227928 0.0 
0.936607 0.0635301 0.0 
0.995326 0.0159388 0.0 
0.944752 0.0273833 0.0 
0.991165 0.0197398 0.0 
0.0798651 0.00931868 0.0 
0.763283 -0.075666 0.0 
1.04374 -0.00243353 0.0 
1.15301 0.0854462 0.0 
1.15192 -0.034338 0.0 
0.997727 0.0104899 0.0 
0.982364 0.0183233 0.0 
1.00521 0.202227 0.0 
1.1151 0.15765 0.0 
0.584192 0.0956242 0.0 
0.951733 0.189118 0.0 
0.981745 0.0186911 0.0 
0.304981 -0.0367375 0.0 
0.982745 0.0215867 0.0 
0.99732 0.0125226 0.0 
1.0003 0.0193186 0.0 
0.252017 -0.0322587 0.0 
0.207337 -0.0237763 0.0 
0.981976 0.0297919 0.0 
0.338761 0.0581732 0.0 
1.19346 0.0905155 0.0 
1.01 0.0420498 0.0 
0.981153 0.0320444 0.0 
0.999676 0.0192198 0.0 
0.9781 0.0110298 0.0 
0.930718 0.0685955 0.0 
0.976805 0.0255144 0.0 
0.852612 0.285245 0.0 
0.497143 -0.0408819 0.0 
0.231814 -0.0230195 0.0 
0.968422 0.0133249 0.0 
0.974992 0.0119401 0.0 
1.0551 0.204724 0.0 
0.315705 -0.0385204 0.0 
0.940197 0.0208601 0.0 
1.03421 -0.038205 0.0 
0.983696 0.245884 0.0 
0.999228 0.0133918 0.0 
0.922989 0.0817339 0.0 
0.972628 0.0307281 0.0 
0.930681 0.14327 0.0 
0.960365 0.156506 0.0 
1.00955 0.255303 0.0 
0.728622 -0.0346753 0.0 
0.937668 -0.0523651 0.0 
1.11489 0.0609361 0.0 
0.469769 0.0937706 0.0 
0.926804 -0.0596831 0.0 
0.116657 0.00186659 0.0 
0.899414 -0.012918 0.0 
0.749899 0.136141 0.0 
0.91551 -0.0664458 0.0 
0.922569 -0.0561767 0.0 
0.615294 0.165352 0.0 
1.04677 0.00804774 0.0 
0.941479 0.173402 0.0 
0.880077 -0.00496534 0.0 
0.928687 -0.0537588 0.0 
1.04061 -0.00491618 0.0 
0.341069 0.0415865 0.0 
1.03745 -0.00811048 0.0 
0.866521 0.00736656 0.0 
0.898199 0.217479 0.0 
1.04925 -0.000466938 0.0 
0.907098 -0.088104 0.0 
0.922372 0.183042 0.0 
0.297218 -0.0397599 0.0 
1.12847 0.0639683 0.0 
1.03545 0.170418 0.0 
0.831691 0.380993 0.0 
1.10295 0.164907 0.0 
1.06485 0.260008 0.0 
0.968551 -0.0477316 0.0 
0.728468 -0.0982291 0.0 
0.977926 0.0330952 0.0 
0.523322 0.0620859 0.0 
0.918799 -0.0526772 0.0 
1.04655 0.067941 0.0 
0.190592 -0.000993121 0.0 
1.0446 0.263766 0.0 
1.05853 0.0419686 0.0 
0.87951 0.105282 0.0 
1.00489 0.0215297 0.0 
0.893218 0.0669092 0.0 
0.145448 0.0082384 0.0 
0.853784 0.0764077 0.0 
0.949753 0.0367167 0.0 
0.947618 0.00376593 0.0 
1.17382 -0.0378065 0.0 
0.764094 0.335528 0.0 
0.84815 0.0891335 0.0 
1.02929 0.0722637 0.0 
1.08258 -0.0948477 0.0 
0.921437 -0.0469159 0.0 
1.04059 0.272058 0.0 
0.964968 0.0167168 0.0 
0.995878 0.039766 0.0 
0.910721 0.0769576 0.0 
0.925082 0.112594 0.0 
0.911093 0.0353474 0.0 
1.00875 0.0269541 0.0 
0.920311 0.105908 0.0 
0.918 0.220921 0.0 
0.999162 0.012495 0.0 
1.09237 -0.070255 0.0 
0.313423 -0.0423625 0.0 
1.05447 0.251359 0.0 
0.966775 0.203083 0.0 
0.80765 0.151306 0.0 
0.827416 0.0382009 0.0 
0.886734 0.0297942 0.0 
1.04276 0.305363 0.0 
0.999542 0.0170951 0.0 
1.12567 0.139969 0.0 
1.03379 0.22651 0.0 
0.886747 -0.0483473 0.0 
0.923283 -0.00200667 0.0 
0.858911 0.158459 0.0 
0.911354 0.0205831 0.0 
0.885607 0.0148081 0.0 
0.932685 -0.0460907 0.0 
0.934755 0.20731 0.0 
0.995748 0.0299072 0.0 
0.999532 0.0146424 0.0 
0.11743 0.0087803 0.0 
0.103365 0.0127262 0.0 
0.913312 0.0276899 0.0 
0.527116 0.153817 0.0 
1.03869 -0.00664504 0.0 
0.922043 -0.0164346 0.0 
0.978141 -0.00110769 0.0 
0.903084 0.0764374 0.0 
0.842317 0.00668987 0.0 
1.08234 -0.0666628 0.0 
0.955319 0.00785333 0.0 
0.975692 0.00895369 0.0 
1.08489 0.267876 0.0 
0.232114 -0.02603 0.0 
0.931212 0.300372 0.0 
0.973179 0.00250537 0.0 
0.989245 0.0536752 0.0 
1.06945 -0.229097 0.0 
0.969175 0.00454692 0.0 
0.961955 0.0124137 0.0 
0.997725 0.0130709 0.0 
1.03792 -0.00783237 0.0 
0.799053 0.108656 0.0 
0.904877 0.0183297 0.0 
0.990999 0.0052716 0.0 
1.02914 -0.182514 0.0 
0.995205 0.0152245 0.0 
0.935833 0.0240047 0.0 
0.811687 0.168358 0.0 
0.950291 -0.00858459 0.0 
0.998131 0.00997967 0.0 
0.939067 0.00461975 0.0 
0.18907 0.128638 0.0 
0.94416 -0.00848894 0.0 
1.06532 -0.00882169 0.0 
0.954545 0.288815 0.0 
0.0769965 0.0179695 0.0 
1.1021 0.255182 0.0 
0.988104 0.0146954 0.0 
0.921199 -0.129292 0.0 
0.969066 0.00171922 0.0 
0.959873 0.00901263 0.0 
0.960118 0.00442032 0.0 
0.544317 0.134955 0.0 
0.962147 0.00174289 0.0 
0.956268 -0.0136589 0.0 
0.652825 0.184377 0.0 
1.03465 -0.0116468 0.0 
1.03507 0.0443664 0.0 
0.997688 0.266111 0.0 
0.9812 0.0205961 0.0 
0.975701 0.0287675 0.0 
0.964902 0.0038126 0.0 
0.893898 0.0128629 0.0 
0.959207 -0.0179474 0.0 
0.119127 0.00146171 0.0 
0.968926 -0.000341257 0.0 
1.06045 0.0178596 0.0 
0.876782 0.168026 0.0 
0.996507 0.0118687 0.0 
1.06569 0.028369 0.0 
1.05828 0.0946666 0.0 
1.10273 -0.0703528 0.0 
1.09738 0.10465 0.0 
0.976707 -0.00306802 0.0 
0.877447 0.182992 0.0 
0.996653 0.0142596 0.0 
0.996972 0.0109594 0.0 
0.890264 -0.0412295 0.0 
0.978906 0.0255418 0.0 
1.16461 -0.226746 0.0 
0.673666 0.0129265 0.0 
0.942394 0.0414138 0.0 
1.01811 0.302755 0.0 
0.908848 0.353379 0.0 
0.839655 0.132085 0.0 
1.16066 0.0751914 0.0 
0.154283 0.134161 0.0 
1.01904 0.289743 0.0 
1.0672 0.265984 0.0 
1.03949 -0.00497991 0.0 
0.939325 0.094065 0.0 
0.0496702 0.00699018 0.0 
1.17707 0.147273 0.0 
0.97804 0.0316066 0.0 
0.910573 0.121948 0.0 
1.12768 0.219881 0.0 
0.852001 0.124256 0.0 
-0.0404371 -0.0171154 0.0 
0.979118 0.029741 0.0 
0.925592 0.0734808 0.0 
0.746495 0.140626 0.0 
0.97994 0.0264955 0.0 
0.912393 0.150046 0.0 
0.995906 0.0123438 0.0 
0.903677 0.101364 0.0 
0.979438 0.0276623 0.0 
0.854492 0.0555758 0.0 
0.831575 0.0224451 0.0 
0.90488 0.164134 0.0 
0.998762 0.0112184 0.0 
0.969134 -0.00480236 0.0 
0.980393 0.0248438 0.0 
0.99908 0.0173639 0.0 
0.963011 -0.0048324 0.0 
0.961991 -0.00849601 0.0 
0.966448 -0.00429079 0.0 
0.938649 -0.0414705 0.0 
0.926338 0.0579746 0.0 
0.926998 0.0879524 0.0 
1.04157 -0.000402734 0.0 
0.989922 0.0316934 0.0 
1.06452 0.0295323 0.0 
0.999168 0.0143118 0.0 
1.07841 -0.00554479 0.0 
1.00588 0.0794261 0.0 
0.950036 0.0131591 0.0 
0.977174 0.0268475 0.0 
1.05072 -0.160771 0.0 
1.10238 0.243152 0.0 
1.12543 0.231322 0.0 
0.933746 -0.0322361 0.0 
0.999063 0.0138459 0.0 
0.951522 0.0108165 0.0 
0.996399 0.0134184 0.0 
0.979713 0.00523882 0.0 
1.05585 0.0111826 0.0 
1.04961 -0.171498 0.0 