<VTKFile type="UnstructuredGrid" version="0.1" byte_order="LittleEndian">
  <UnstructuredGrid>
    <Piece NumberOfPoints="9712" NumberOfCells="19403">
      <Points>
        <DataArray type = "Float64" NumberOfComponents="3" format="ascii">
-5 -7 0.0 
15.5 -7 0.0 
15.5 7 0.0 
-5 7 0.0 
-1.6546 1.77742 0.0 
-2.13867 1.86504 0.0 
-1.83467 1.79143 0.0 
1.47969 -2.21179 0.0 
1.36003 -2.38618 0.0 
1.4346 -2.45048 0.0 
-2.04214 1.94165 0.0 
-0.20425 1.17338 0.0 
-2.07648 1.81911 0.0 
-2.00827 1.89081 0.0 
-2.05492 1.98872 0.0 
0.192693 0.536219 0.0 
0.154285 1.75648 0.0 
1.1379 -1.62057 0.0 
-2.11226 1.96977 0.0 
-1.74119 1.75327 0.0 
1.14499 -1.58184 0.0 
-1.94373 2.37229 0.0 
1.50619 -0.664239 0.0 
1.99658 -1.76705 0.0 
1.7229 -1.18344 0.0 
-1.97759 2.52091 0.0 
-0.768046 0.387136 0.0 
1.32657 -1.43969 0.0 
1.90142 0.24821 0.0 
-0.93264 1.51038 0.0 
1.09557 0.967223 0.0 
0.627111 0.757352 0.0 
-2.05707 2.31394 0.0 
1.34027 -2.45136 0.0 
-0.725097 0.397516 0.0 
-0.666094 2.30428 0.0 
-0.73829 -0.279965 0.0 
1.73336 -1.08822 0.0 
1.88466 -1.24421 0.0 
1.50539 -1.23752 0.0 
1.65978 -1.30759 0.0 
-0.0409718 0.542603 0.0 
1.6005 -1.1227 0.0 
1.78439 -0.941488 0.0 
1.86015 -1.54236 0.0 
1.49308 -1.40058 0.0 
2.34892 -1.47149 0.0 
2.13832 -1.3246 0.0 
1.73061 0.751302 0.0 
-0.580328 0.526903 0.0 
1.51013 -2.1595 0.0 
-1.65424 3.45779 0.0 
-1.51397 2.46352 0.0 
1.42773 -2.17867 0.0 
0.304353 0.497878 0.0 
2.24628 0.228293 0.0 
1.51258 -2.27933 0.0 
-1.60346 3.44299 0.0 
-1.71408 2.36227 0.0 
2.17421 0.530405 0.0 
2.42 0.316451 0.0 
-1.63642 3.31911 0.0 
2.53942 -0.995036 0.0 
0.750003 0.810439 0.0 
2.04736 0.40918 0.0 
1.19615 -1.50641 0.0 
2.13474 0.494063 0.0 
0.547924 0.306722 0.0 
-0.2059 0.361394 0.0 
2.2127 0.547693 0.0 
1.41442 -0.597105 0.0 
1.52233 -1.46252 0.0 
-1.84114 2.53924 0.0 
-5 -2.53894 0.0 
2.32127 0.371156 0.0 
-1.69186 3.33379 0.0 
-0.964779 0.566136 0.0 
-1.81311 2.48387 0.0 
-1.78557 3.38304 0.0 
1.48278 0.914136 0.0 
2.51531 -1.89689 0.0 
1.20982 -0.330514 0.0 
0.408434 0.319657 0.0 
0.95023 0.60993 0.0 
-0.752349 0.440796 0.0 
-0.998248 0.564019 0.0 
-1.73165 3.36299 0.0 
1.24353 -1.49063 0.0 
0.942095 0.817189 0.0 
-1.77816 2.47096 0.0 
2.48183 -1.95479 0.0 
1.33574 -1.77854 0.0 
0.823335 1.12085 0.0 
-0.36308 0.598468 0.0 
0.745466 0.783414 0.0 
-1.88344 2.8521 0.0 
-1.79794 3.52221 0.0 
3.0087 0.272815 0.0 
-1.81486 2.66014 0.0 
0.375911 -0.403668 0.0 
-0.68323 0.487288 0.0 
-0.34187 -0.274923 0.0 
-0.293875 -0.201368 0.0 
1.61018 -1.767 0.0 
-0.448275 -0.347267 0.0 
-1.08687 0.352015 0.0 
1.29257 -1.76345 0.0 
1.67658 -1.49551 0.0 
1.19193 0.533009 0.0 
1.21582 -1.91654 0.0 
-0.36438 -0.346225 0.0 
-0.92534 0.330346 0.0 
2.3836 0.287756 0.0 
1.68841 0.639887 0.0 
1.59001 -1.89458 0.0 
1.14818 -1.92143 0.0 
1.28996 -2.19426 0.0 
1.37603 -1.8763 0.0 
1.23834 -2.09141 0.0 
1.11702 -2.06287 0.0 
0.691829 0.463808 0.0 
1.46523 -2.03459 0.0 
-0.123547 0.424486 0.0 
-1.3311 2.12174 0.0 
1.08169 -1.90074 0.0 
1.87975 -2.15971 0.0 
1.10131 -1.78593 0.0 
1.13722 0.534683 0.0 
1.42465 -1.59031 0.0 
-1.45435 2.47344 0.0 
1.41998 -1.98207 0.0 
0.463917 1.8787 0.0 
-1.72896 2.89571 0.0 
1.12419 -1.84975 0.0 
1.59054 -1.20634 0.0 
0.46124 0.621002 0.0 
0.806438 -1.00204 0.0 
2.1804 0.349761 0.0 
2.21142 -1.6418 0.0 
1.10152 -0.274558 0.0 
2.23388 0.387302 0.0 
0.137769 0.567007 0.0 
1.88736 0.267391 0.0 
1.26821 -1.94267 0.0 
0.21033 -0.605707 0.0 
2.61094 -1.50046 0.0 
0.819837 0.743337 0.0 
-1.4303 2.07799 0.0 
1.82013 0.322126 0.0 
-1.47649 2.2099 0.0 
1.15745 -0.274223 0.0 
-1.81198 2.24994 0.0 
2.34337 -1.67775 0.0 
-1.13329 1.37877 0.0 
-0.828215 1.05292 0.0 
2.46752 -1.53452 0.0 
-1.69915 2.18529 0.0 
-0.404416 -0.286271 0.0 
-1.23501 1.31766 0.0 
2.11757 -1.50659 0.0 
-1.08535 1.28274 0.0 
2.58548 -1.70783 0.0 
0.24729 -0.572345 0.0 
-1.66963 2.25319 0.0 
1.58322 -1.62308 0.0 
-0.367923 -0.306026 0.0 
0.391521 1.44485 0.0 
1.88977 -2.46319 0.0 
1.5943 -1.53613 0.0 
-0.357143 -0.23651 0.0 
0.82621 0.80563 0.0 
-1.59261 2.31884 0.0 
-0.47244 -0.307516 0.0 
-0.40334 -0.326688 0.0 
-2.00063 2.11543 0.0 
1.55514 -1.95078 0.0 
-1.40431 2.26352 0.0 
-0.0265928 0.573714 0.0 
1.17093 1.10579 0.0 
-1.77907 2.22111 0.0 
0.682788 0.329642 0.0 
-0.54475 2.15572 0.0 
-0.288592 0.289433 0.0 
-1.43199 2.16349 0.0 
-1.45029 2.25134 0.0 
1.5535 -1.79992 0.0 
-1.06406 1.08381 0.0 
1.72954 1.44966 0.0 
0.582806 0.515814 0.0 
0.582876 -0.679913 0.0 
1.32351 -0.355916 0.0 
-0.47505 0.577092 0.0 
-0.371167 0.227715 0.0 
1.52235 -1.8529 0.0 
-0.429822 -0.244811 0.0 
-0.53237 -0.24648 0.0 
-0.393983 -0.210364 0.0 
0.652895 0.317361 0.0 
1.55812 -1.70765 0.0 
1.63021 0.325622 0.0 
0.442731 0.358729 0.0 
1.22925 -1.85192 0.0 
1.43517 -1.79082 0.0 
1.39317 -1.6984 0.0 
1.62965 0.295952 0.0 
0.905462 0.793465 0.0 
1.04036 -1.64811 0.0 
2.1131 -1.72466 0.0 
-0.743911 0.369492 0.0 
1.14427 -1.99314 0.0 
1.26033 -2.0209 0.0 
-1.70955 2.07308 0.0 
0.910023 -1.62976 0.0 
-0.313059 -0.0954838 0.0 
-1.77334 2.3988 0.0 
-0.311958 -0.24042 0.0 
2.53315 0.325608 0.0 
-0.273728 -0.226719 0.0 
-0.646401 0.379627 0.0 
1.52426 0.616074 0.0 
2.21703 -1.79499 0.0 
2.71108 0.312216 0.0 
0.759924 1.093 0.0 
-1.69271 2.12368 0.0 
0.255794 0.540969 0.0 
0.0534699 0.562158 0.0 
-1.5679 2.22408 0.0 
-1.66906 2.45165 0.0 
-1.51895 2.09449 0.0 
2.16948 0.408238 0.0 
-0.818806 0.680638 0.0 
-0.826868 0.642087 0.0 
0.519855 0.276992 0.0 
-0.716682 1.18602 0.0 
-0.649974 -0.148775 0.0 
0.457368 0.256619 0.0 
0.517407 0.248194 0.0 
0.327129 0.39802 0.0 
0.533249 -0.878832 0.0 
-0.870735 0.634904 0.0 
1.19219 1.07557 0.0 
2.35922 0.366028 0.0 
-1.66911 3.66723 0.0 
-0.857603 1.54934 0.0 
-0.379189 2.30131 0.0 
-0.941007 1.36523 0.0 
-1.58662 2.49682 0.0 
-0.545297 0.352587 0.0 
0.327944 -0.744683 0.0 
-0.312756 0.524741 0.0 
-0.107843 0.506233 0.0 
2.13378 -2.36584 0.0 
1.52689 0.686953 0.0 
-0.119983 0.327909 0.0 
1.02161 -1.53072 0.0 
1.51507 0.39695 0.0 
-0.674484 1.02605 0.0 
-0.564724 -0.148435 0.0 
0.409388 0.290913 0.0 
0.252349 0.30842 0.0 
-1.09282 1.45998 0.0 
1.45674 -1.54484 0.0 
-0.266777 0.782169 0.0 
0.91327 -0.874389 0.0 
1.01208 1.13309 0.0 
-0.897136 1.35063 0.0 
-0.846484 0.489353 0.0 
1.47563 0.663768 0.0 
-1.22282 2.05021 0.0 
0.348906 0.416714 0.0 
1.41913 0.964648 0.0 
0.933289 -0.839038 0.0 
-1.85066 1.40221 0.0 
0.142477 1.99435 0.0 
-0.717809 0.341194 0.0 
-2.21177 1.41584 0.0 
0.396571 0.350929 0.0 
1.25171 -1.60721 0.0 
0.736798 0.393502 0.0 
-0.661427 0.19031 0.0 
2.18751 -2.32769 0.0 
-1.00908 1.6747 0.0 
2.21416 -2.07269 0.0 
-0.779194 0.642011 0.0 
-1.02312 1.3939 0.0 
2.08809 -2.24876 0.0 
-5 -4.48794 0.0 
1.61792 -1.46215 0.0 
-0.974627 1.38947 0.0 
1.81166 -2.48446 0.0 
-1.03635 1.47474 0.0 
0.869004 -1.74424 0.0 
0.956579 -1.78598 0.0 
1.07495 0.540689 0.0 
-1.08005 1.37763 0.0 
0.914755 -0.803058 0.0 
0.611759 -0.305322 0.0 
1.70043 -1.41356 0.0 
0.75708 -0.631542 0.0 
1.21215 1.01979 0.0 
-0.586902 0.440014 0.0 
1.9251 -2.56336 0.0 
-1.58261 1.91091 0.0 
-0.746541 1.26087 0.0 
-1.49915 1.13657 0.0 
-1.46675 0.971536 0.0 
-1.05881 0.930935 0.0 
0.71826 0.415078 0.0 
-0.701697 0.526982 0.0 
-1.56194 2.05157 0.0 
1.15988 0.991244 0.0 
1.38676 0.949615 0.0 
-1.61697 2.02689 0.0 
1.13748 -0.357331 0.0 
-1.8456 2.04561 0.0 
0.253686 -0.756334 0.0 
-1.53603 1.86509 0.0 
-1.43465 0.924137 0.0 
-1.00273 1.27416 0.0 
-1.03063 1.5132 0.0 
-1.32483 1.94769 0.0 
-0.965552 1.61445 0.0 
-0.239859 -0.245939 0.0 
-5 3.01776 0.0 
-5 -0.248741 0.0 
0.517491 1.87079 0.0 
-1.18776 1.8875 0.0 
2.27458 0.36201 0.0 
1.9794 0.331487 0.0 
0.503086 0.510306 0.0 
1.26387 -0.370702 0.0 
1.24483 0.550197 0.0 
1.12871 0.979556 0.0 
-1.48659 1.83259 0.0 
1.0672 0.958366 0.0 
-1.16856 1.61214 0.0 
-0.218637 -0.230696 0.0 
-5 1.81431 0.0 
1.37014 1.04658 0.0 
0.0950623 0.557621 0.0 
-1.23613 1.67303 0.0 
0.953731 -0.709843 0.0 
2.07568 -1.85385 0.0 
2.10836 -1.82014 0.0 
-0.994952 1.33552 0.0 
-1.86986 1.52312 0.0 
0.515812 0.447542 0.0 
0.842446 0.992035 0.0 
-1.42353 1.8223 0.0 
2.091 0.354014 0.0 
-0.937663 0.401428 0.0 
-1.69305 1.41997 0.0 
-1.82465 1.55127 0.0 
2.15192 0.384657 0.0 
-1.17972 1.37998 0.0 
-0.718866 -0.0130647 0.0 
-0.927867 0.290435 0.0 
1.56509 0.300406 0.0 
-5 -3.04052 0.0 
9.98027 -7 0.0 
0.176009 0.694641 0.0 
0.597997 -0.559941 0.0 
-0.546583 0.4849 0.0 
0.602022 -0.657834 0.0 
2.17737 0.379672 0.0 
1.89809 0.287017 0.0 
-1.58883 1.35796 0.0 
-1.2284 1.37063 0.0 
-1.43937 1.35342 0.0 
-1.59664 1.47263 0.0 
0.577431 -0.368705 0.0 
1.5263 -1.51093 0.0 
0.479666 0.796509 0.0 
0.894995 1.01463 0.0 
2.22312 0.363016 0.0 
-0.320562 0.726481 0.0 
-1.30188 2.41386 0.0 
0.43802 0.434693 0.0 
-0.761697 0.762024 0.0 
1.45688 -1.49591 0.0 
-0.65072 0.676835 0.0 
1.6097 -1.41509 0.0 
2.25768 0.399237 0.0 
1.85518 0.299709 0.0 
2.14618 0.290757 0.0 
2.25222 0.371677 0.0 
-1.93063 2.91367 0.0 
1.52717 0.319618 0.0 
1.67964 -1.62237 0.0 
1.35962 -0.439169 0.0 
1.63007 -1.54335 0.0 
-5 -0.764504 0.0 
-1.61377 2.62271 0.0 
1.73865 -1.57725 0.0 
-0.908306 1.23669 0.0 
1.60766 0.330292 0.0 
1.82509 -1.63054 0.0 
1.90521 0.312457 0.0 
1.98719 -1.6488 0.0 
-0.528791 0.39225 0.0 
1.94978 -2.39003 0.0 
-0.472559 0.718465 0.0 
-1.28058 2.26572 0.0 
0.881581 -0.556282 0.0 
2.26369 0.42542 0.0 
0.917309 -1.69962 0.0 
0.853954 -1.60945 0.0 
1.30086 -0.404316 0.0 
1.99565 -2.46852 0.0 
1.49445 -1.47573 0.0 
1.68285 0.863315 0.0 
2.03074 -2.37549 0.0 
2.52279 -0.506167 0.0 
2.56049 -1.76899 0.0 
-1.52889 2.56597 0.0 
2.81136 -0.570221 0.0 
1.3688 -1.46095 0.0 
1.29524 -0.373946 0.0 
-0.350504 0.671928 0.0 
-0.590282 0.564035 0.0 
-0.054366 2.16706 0.0 
1.50819 1.22548 0.0 
-0.548222 0.453941 0.0 
2.19936 -2.5207 0.0 
12.2704 -7 0.0 
1.6811 -1.36761 0.0 
-0.449261 0.559535 0.0 
0.537017 -0.527614 0.0 
-0.00733391 0.553304 0.0 
0.494109 -0.356396 0.0 
-0.7939 0.0827441 0.0 
0.39888 0.467333 0.0 
-1.04288 1.34095 0.0 
0.605019 1.02824 0.0 
0.847559 0.374727 0.0 
1.00336 0.618307 0.0 
2.1955 0.399186 0.0 
0.656973 0.401158 0.0 
-0.998431 2.73564 0.0 
[...]
<PointData>
  <DataArray type = "Float64" Name="VitesseP1" NumberOfComponents="3" format="ascii">
1 0 0.0 
1.09204 0 0.0 
1.03466 0 0.0 
1 0 0.0 
0.994547 0.0159897 0.0 
0.99687 0.0112793 0.0 
0.995437 0.01378 0.0 
1.04166 -0.00473203 0.0 
1.04346 -0.00599662 0.0 
1.04857 -0.00566032 0.0 
0.997719 0.0122184 0.0 
0.986228 0.073221 0.0 
0.996561 0.0116138 0.0 
0.996772 0.0124106 0.0 
0.998888 0.0122217 0.0 
0.991365 0.21883 0.0 
1.01982 0.05433 0.0 
1.0499 -0.0268231 0.0 
0.998813 0.0116363 0.0 
0.994967 0.0147137 0.0 
1.055 -0.0277846 0.0 
0.998819 0.0135697 0.0 
1.15955 -0.0274495 0.0 
1.04721 0.0110532 0.0 
1.06346 -0.0029845 0.0 
0.998782 0.0131494 0.0 
0.94425 0.0088767 0.0 
1.06305 -0.0229314 0.0 
0.0606558 -0.00248993 0.0 
0.988655 0.0316965 0.0 
1.14247 0.070153 0.0 
1.10918 0.143761 0.0 
0.998814 0.0125634 0.0 
1.03348 -0.0190682 0.0 
0.941078 0.0124775 0.0 
1.00536 0.0307096 0.0 
0.936511 -0.0514572 0.0 
1.0847 -0.00283814 0.0 
1.05606 0.00778816 0.0 
1.05358 -0.0166144 0.0 
1.05633 -0.00604752 0.0 
0.926238 0.152099 0.0 
1.07499 -0.0121814 0.0 
1.1266 0.000476712 0.0 
1.06851 0.00600604 0.0 
1.0634 -0.0147536 0.0 
1.06304 0.0334065 0.0 
1.05677 0.0234378 0.0 
1.19981 0.0318442 0.0 
0.939211 0.0358986 0.0 
1.04052 -0.00467505 0.0 
1.00252 0.012504 0.0 
0.99976 0.0177761 0.0 
1.03995 -0.00629241 0.0 
1.03661 0.243991 0.0 
0.0409324 -0.0042652 0.0 
1.04324 -0.00370808 0.0 
1.00275 0.0129138 0.0 
0.999042 0.015851 0.0 
1.14669 0.00343304 0.0 
0.111275 -0.00108717 0.0 
1.00239 0.0131921 0.0 
1.096 0.0606587 0.0 
1.1222 0.122499 0.0 
0.518522 0.00103428 0.0 
1.06082 -0.0277452 0.0 
1.04239 0.00363945 0.0 
0.551976 0.13455 0.0 
0.862189 0.0857313 0.0 
1.17285 -0.000174034 0.0 
1.20276 -0.0393412 0.0 
1.06702 -0.0123609 0.0 
0.998994 0.0143032 0.0 
1 0 0.0 
0.246948 -0.0139464 0.0 
1.00216 0.0127597 0.0 
0.967937 0.0107815 0.0 
0.999016 0.0146617 0.0 
1.00178 0.0119226 0.0 
1.17368 0.0389595 0.0 
1.03775 0.0216193 0.0 
0.746753 -0.0410151 0.0 
0.946163 0.263447 0.0 
1.17242 0.11738 0.0 
0.94589 0.0144341 0.0 
0.969759 0.00907143 0.0 
1.00206 0.0123629 0.0 
1.06217 -0.0259759 0.0 
1.14303 0.0995795 0.0 
0.999081 0.0150139 0.0 
1.04443 0.0263594 0.0 
1.043 -0.0153207 0.0 
1.09698 0.0812395 0.0 
0.935096 0.0704192 0.0 
1.12448 0.126641 0.0 
0.99984 0.0130864 0.0 
1.0022 0.0111388 0.0 
-0.00810309 -0.150272 0.0 
0.999186 0.0142393 0.0 
1.18991 -0.234827 0.0 
0.943768 0.023236 0.0 
0.918235 -0.0884683 0.0 
0.915042 -0.0745351 0.0 
1.04739 -0.0048429 0.0 
0.92385 -0.0784131 0.0 
0.96699 -0.00804423 0.0 
1.04272 -0.017265 0.0 
1.06887 -0.00377526 0.0 
1.19457 0.0859051 0.0 
1.03782 -0.0167837 0.0 
0.919516 -0.08876 0.0 
0.954618 -0.00352136 0.0 
0.0741105 0.00466886 0.0 
1.20241 0.0385728 0.0 
1.04391 -0.00466372 0.0 
1.03626 -0.0186036 0.0 
1.03765 -0.00894606 0.0 
1.04177 -0.0122364 0.0 
1.03517 -0.0126834 0.0 
1.03235 -0.017605 0.0 
1.16188 0.185768 0.0 
1.03881 -0.00716473 0.0 
0.876671 0.12635 0.0 
0.999024 0.0212748 0.0 
1.0352 -0.0211098 0.0 
1.04059 0.00440057 0.0 
1.03777 -0.0234951 0.0 
1.19434 0.0933104 0.0 
1.06126 -0.0153065 0.0 
1.00001 0.01841 0.0 
1.03895 -0.0092395 0.0 
1.02988 0.0478954 0.0 
1.00071 0.0141456 0.0 
1.03718 -0.0211542 0.0 
1.05835 -0.011565 0.0 
1.08655 0.190341 0.0 
1.06771 -0.0740467 0.0 
0.116748 0.000524897 0.0 
1.05469 0.0220047 0.0 
0.453819 -0.0393261 0.0 
0.35205 -0.00859174 0.0 
0.976862 0.197209 0.0 
0.0658078 -0.00960446 0.0 
1.03782 -0.0146324 0.0 
1.0297 -0.160962 0.0 
1.05047 0.0488061 0.0 
1.13866 0.122603 0.0 
0.998736 0.0198691 0.0 
0.073588 0.0027604 0.0 
0.998899 0.0189425 0.0 
0.407351 -0.0174729 0.0 
0.998728 0.0149251 0.0 
1.0465 0.0265946 0.0 
0.985058 0.024877 0.0 
0.973284 0.0347242 0.0 
1.05609 0.0377466 0.0 
0.998554 0.0161864 0.0 
0.92226 -0.0796182 0.0 
0.984065 0.021265 0.0 
1.0673 0.0198496 0.0 
0.98147 0.0257347 0.0 
1.03319 0.0330199 0.0 
1.03895 -0.171441 0.0 
0.998839 0.0164834 0.0 
1.05923 -0.00736716 0.0 
0.91964 -0.0860029 0.0 
1.03424 0.0707031 0.0 
1.04633 -0.00216006 0.0 
1.06759 -0.00774734 0.0 
0.915926 -0.0817682 0.0 
1.13217 0.11446 0.0 
0.99915 0.0172783 0.0 
0.927173 -0.0728283 0.0 
0.92168 -0.0827137 0.0 
0.998598 0.0129594 0.0 
1.04144 -0.00542318 0.0 
0.999394 0.019782 0.0 
0.938315 0.152087 0.0 
1.1312 0.0515299 0.0 
0.998668 0.0152859 0.0 
0.627665 0.110778 0.0 
1.00604 0.0348276 0.0 
0.862806 0.0456338 0.0 
0.998858 0.0196648 0.0 
0.999201 0.0191939 0.0 
1.04555 -0.00680112 0.0 
0.973801 0.0242064 0.0 
1.07467 -0.0411686 0.0 
1.14018 0.201191 0.0 
1.10762 -0.129623 0.0 
0.864423 -0.0316302 0.0 
0.937849 0.0522022 0.0 
0.874524 0.0165515 0.0 
1.04422 -0.00744613 0.0 
0.923556 -0.0731601 0.0 
0.932738 -0.0626473 0.0 
0.918279 -0.074286 0.0 
0.575959 0.110975 0.0 
1.05071 -0.00759209 0.0 
0.107251 0.0173975 0.0 
1.03495 0.265749 0.0 
1.03952 -0.0176849 0.0 
1.04439 -0.0114373 0.0 
1.04919 -0.0147027 0.0 
0.0872934 0.0257488 0.0 
1.14216 0.106207 0.0 
1.04411 -0.0296782 0.0 
1.04822 0.0162842 0.0 
0.941129 0.0087113 0.0 
1.03367 -0.0175021 0.0 
1.0356 -0.0133375 0.0 
0.998698 0.0160629 0.0 
1.04116 -0.0348692 0.0 
0.898054 -0.0654866 0.0 
0.99901 0.0151815 0.0 
0.909133 -0.0857878 0.0 
0.17619 0.000667413 0.0 
0.887247 -0.0839608 0.0 
0.932285 0.0162533 0.0 
1.20053 0.04999 0.0 
1.04394 0.0195231 0.0 
0.249042 -0.0123347 0.0 
1.0963 0.0887786 0.0 
0.998509 0.0162693 0.0 
1.01801 0.223859 0.0 
0.950787 0.177874 0.0 
0.998835 0.0177384 0.0 
0.999285 0.0161396 0.0 
0.998706 0.0185608 0.0 
0.503535 -0.00477202 0.0 
0.967488 0.0253257 0.0 
0.96518 0.0228191 0.0 
0.41133 0.135829 0.0 
0.976302 0.0412231 0.0 
0.939819 -0.0444476 0.0 
0.299008 0.101273 0.0 
0.373365 0.184575 0.0 
1.06163 0.297573 0.0 
1.06816 -0.103523 0.0 
0.966953 0.0197246 0.0 
1.13872 0.051922 0.0 
0.23418 -0.012303 0.0 
1.00072 0.0117765 0.0 
0.990267 0.0340391 0.0 
1.00957 0.0352382 0.0 
0.983647 0.0313728 0.0 
0.999591 0.016882 0.0 
0.918355 0.02152 0.0 
1.05765 -0.132003 0.0 
0.918516 0.0759992 0.0 
0.908097 0.132396 0.0 
1.0462 0.013348 0.0 
1.19205 0.0470297 0.0 
0.829229 0.116972 0.0 
1.05529 -0.0344784 0.0 
0.537995 0.0224979 0.0 
0.975621 0.0438527 0.0 
0.932169 -0.050334 0.0 
0.698699 0.194678 0.0 
0.897629 0.339331 0.0 
0.987172 0.0265501 0.0 
1.06539 -0.0144171 0.0 
0.966916 0.0867359 0.0 
1.11209 -0.0775327 0.0 
1.11163 0.0643358 0.0 
0.98302 0.033033 0.0 
0.95604 0.0122469 0.0 
1.19259 0.0520483 0.0 
0.999118 0.023297 0.0 
1.07599 0.284711 0.0 
1.16686 0.0403577 0.0 
1.12246 -0.0785718 0.0 
0.994036 0.0103002 0.0 
1.01828 0.0459509 0.0 
0.937126 0.00759623 0.0 
0.997203 0.00860635 0.0 
1.01627 0.284993 0.0 
1.05506 -0.022497 0.0 
0.994708 0.152281 0.0 
0.924767 -0.00652229 0.0 
1.0367 0.0314135 0.0 
0.992736 0.0290436 0.0 
1.03703 0.0162793 0.0 
0.96258 0.0260188 0.0 
0.984886 0.0285587 0.0 
1.03669 0.00746225 0.0 
1 0 0.0 
1.06812 -0.00716953 0.0 
0.984604 0.0302168 0.0 
1.0445 -0.00162505 0.0 
0.987463 0.0283464 0.0 
1.03182 -0.0319451 0.0 
1.0339 -0.028127 0.0 
1.19182 0.10236 0.0 
0.984683 0.0265748 0.0 
1.12803 -0.0831737 0.0 
0.911223 -0.146942 0.0 
1.06644 -0.00298565 0.0 
1.1262 -0.115549 0.0 
1.14717 0.0544984 0.0 
0.930996 0.0275377 0.0 
1.03655 0.00123611 0.0 
0.995887 0.0174602 0.0 
0.979581 0.0395824 0.0 
0.983961 0.0113235 0.0 
0.995468 0.0105706 0.0 
0.990002 0.0215189 0.0 
1.08595 0.169563 0.0 
0.948319 0.0247888 0.0 
0.998682 0.0179277 0.0 
1.14565 0.0618382 0.0 
1.16548 0.0439506 0.0 
0.998427 0.017166 0.0 
0.926474 -0.057972 0.0 
0.999067 0.0144339 0.0 
1.04186 -0.128746 0.0 
0.994976 0.0180579 0.0 
1.0002 0.0112275 0.0 
0.980597 0.0286377 0.0 
0.988721 0.0285908 0.0 
0.996517 0.0216733 0.0 
0.991809 0.0304409 0.0 
0.881566 -0.105759 0.0 
1 0 0.0 
1 0 0.0 
1.03183 0.0473396 0.0 
0.995175 0.0243373 0.0 
0.188372 -0.0102582 0.0 
0.0551116 0.00623632 0.0 
1.11576 0.218276 0.0 
0.954491 -0.0464559 0.0 
1.19932 0.0797305 0.0 
1.14415 0.065855 0.0 
0.994403 0.0187704 0.0 
1.14089 0.0737537 0.0 
0.991741 0.0248759 0.0 
0.947674 -0.164095 0.0 
1 0 0.0 
1.15768 0.0376833 0.0 
0.961044 0.190515 0.0 
0.992692 0.0233768 0.0 
1.1423 -0.0861795 0.0 
1.04396 0.0134063 0.0 
1.04441 0.0150742 0.0 
0.982722 0.029306 0.0 
0.995314 0.0115504 0.0 
1.1267 0.233439 0.0 
1.11811 0.0927277 0.0 
0.99415 0.0198301 0.0 
0.13303 -0.00265656 0.0 
0.958295 0.00129196 0.0 
0.992049 0.0123562 0.0 
0.995241 0.0122674 0.0 
0.324343 -0.003197 0.0 
0.985412 0.0234803 0.0 
0.948259 -0.0293051 0.0 
0.953409 -0.00674862 0.0 
0.091999 -0.0106283 0.0 
1 0 0.0 
1.07139 0 0.0 
1.00725 0.166902 0.0 
1.11865 -0.146815 0.0 
0.931741 0.0360496 0.0 
1.11147 -0.130925 0.0 
0.290453 -0.00382812 0.0 
0.075652 -0.00703947 0.0 
0.989576 0.0130913 0.0 
0.98555 0.0219874 0.0 
0.987358 0.0162481 0.0 
0.991606 0.0145282 0.0 
1.10629 -0.173929 0.0 
1.06725 -0.0114621 0.0 
1.07919 0.148297 0.0 
1.12115 0.08574 0.0 
0.191227 -0.00521457 0.0 
0.956443 0.0795514 0.0 
1.00051 0.0205071 0.0 
1.10975 0.258159 0.0 
0.972144 0.0327799 0.0 
1.06641 -0.0153296 0.0 
0.959125 0.038112 0.0 
1.06592 -0.0081579 0.0 
0.440091 -0.0112518 0.0 
0.0751478 0.00592018 0.0 
0.0649606 0.0025056 0.0 
0.248478 -0.00679045 0.0 
0.999802 0.0125097 0.0 
0.0784423 0.000926863 0.0 
1.05995 -0.0028785 0.0 
1.1564 -0.0442312 0.0 
1.0676 -0.00588812 0.0 
1 0 0.0 
0.999715 0.0161871 0.0 
1.06573 -0.000137847 0.0 
0.978968 0.0322389 0.0 
0.0936999 0.00804145 0.0 
1.05968 0.00407109 0.0 
0.0733999 -0.00311632 0.0 
1.05698 0.0115883 0.0 
0.920046 0.0282154 0.0 
1.04136 -0.000289613 0.0 
0.957145 0.0585952 0.0 
0.999873 0.0214967 0.0 
1.19474 -0.111154 0.0 
0.629842 -0.0117845 0.0 
1.03595 -0.0319959 0.0 
1.04149 -0.0374079 0.0 
1.06459 -0.045944 0.0 
1.0542 0.00954441 0.0 
1.06691 -0.0136797 0.0 
1.18819 0.0247945 0.0 
1.04098 0.0132668 0.0 
1.24584 0.0833212 0.0 
1.03494 0.0281884 0.0 
0.999916 0.0172433 0.0 
1.17843 0.107861 0.0 
1.06435 -0.0204814 0.0 
0.967225 -0.0466178 0.0 
0.947496 0.0744784 0.0 
0.943998 0.0375697 0.0 
1.01437 0.0421953 0.0 
1.13724 0.00181444 0.0 
0.928638 0.0328884 0.0 
1.006 -0.00599322 0.0 
1.06854 0 0.0 
1.06271 -0.00433738 0.0 
0.933558 0.0546902 0.0 
1.13842 -0.164344 0.0 
0.935078 0.161051 0.0 
1.10097 -0.195286 0.0 
0.952383 -0.0200295 0.0 
1.08649 0.251996 0.0 
0.983194 0.0276022 0.0 
1.08738 0.106135 0.0 
0.781516 0.101836 0.0 
1.17505 0.108604 0.0 
0.43644 -0.00660198 0.0 
1.07257 0.187508 0.0 
1.00398 0.0216297 0.0 
1.05669 0.0144162 0.0 
1.04283 0.00777366 0.0 
1.04794 -0.00185713 0.0 
1.04635 -0.000760507 0.0 
0.0593826 0.00279715 0.0 
1.04168 0.00115125 0.0 
-0.0666878 0.0202455 0.0 
1.02129 -0.0279112 0.0 
1.00408 0.0352997 0.0 
1.04459 0.00840717 0.0 
1 0 0.0 
0.983181 0.0264314 0.0 
1.19256 0.0982837 0.0 
0.706844 -0.0285451 0.0 
0.999569 0.0156214 0.0 
0.991769 0.0392539 0.0 
1.05035 0.00922925 0.0 
1.05513 0.0043618 0.0 
0.93919 0.189748 0.0 
0.774331 0.130907 0.0 
1.00431 0.0187012 0.0 
1.13703 0.128333 0.0 
0.998902 0.244194 0.0 
0.999088 0.0122079 0.0 
0.985986 0.0293254 0.0 
1.05165 0.000245993 0.0 
0.937429 0.125251 0.0 
0.160172 0.0362717 0.0 
1.05066 0.00238799 0.0 
0.171801 0.0989121 0.0 
1.05084 -0.00184772 0.0 
0.984636 -0.00853519 0.0 
1.01638 0.047496 0.0 
1.09434 -0.030783 0.0 
1.04734 0.00134428 0.0 
0.956919 -0.00613975 0.0 
0.32704 0.0133954 0.0 
1.0631 -0.0238326 0.0 
0.946426 -0.00131778 0.0 
0.999779 0.0153141 0.0 
1.06052 -0.0287372 0.0 
0.941535 0.0661391 0.0 
1.19751 -0.0468639 0.0 
0.245355 0.0123064 0.0 
0.558892 -0.0152828 0.0 
0.940921 -0.00451077 0.0 
0.9636 0.27311 0.0 
0.249145 0.0479702 0.0 
0.995555 0.316612 0.0 
0.903988 -0.00350479 0.0 
1.07835 -0.0440825 0.0 
0.67103 0.000479111 0.0 
0.35483 0.116227 0.0 
1.10287 0.0721069 0.0 
0.998681 0.0123099 0.0 
0.523831 5.93532e-05 0.0 
0.144831 0.0603945 0.0 
0.914182 -0.0433445 0.0 
0.710841 -0.0192877 0.0 
1.03099 0.0449468 0.0 
0.998759 0.0118945 0.0 
1.02545 -0.0986893 0.0 
1.11075 -0.0358679 0.0 
1.17451 0.0288259 0.0 
0.0756833 -0.00113246 0.0 
0.936009 -0.0576955 0.0 
1.03512 0.0419627 0.0 
1.06695 -0.00931058 0.0 
0.937888 -0.00891667 0.0 
0.0676244 -8.25668e-05 0.0 
0.998781 0.0128302 0.0 
1.17296 0.0328903 0.0 
1.05904 -0.0279485 0.0 
0.963021 0.216891 0.0 
1.05317 0.0134218 0.0 
1.06854 -0.000969659 0.0 
1.06862 0.00384009 0.0 
0.954355 0.0378697 0.0 
1.06099 -0.0257434 0.0 
0.998906 0.0140258 0.0 
0.952086 0.00720546 0.0 
1.13468 -0.0349262 0.0 
1.05433 0.0192457 0.0 
0.98931 0.00744325 0.0 
0.953267 0.0155057 0.0 
0.998945 0.0142148 0.0 
1.0578 0.00396797 0.0 
1.04104 -0.00606099 0.0 
1.0609 -0.0229947 0.0 
0.990478 0.00909323 0.0 
1.02113 0.0451899 0.0 
0.998872 0.013453 0.0 
1.0453 -0.0274933 0.0 
1.06565 0.0181892 0.0 
0.0594365 0.00878468 0.0 
0.0462085 0.0110037 0.0 
1.069 0.0141016 0.0 
0.904985 -0.0563964 0.0 
0.883911 -0.0486425 0.0 
0.873336 0.121255 0.0 
0.999394 0.0141626 0.0 
0.99884 0.0141271 0.0 
0.962726 -0.0131382 0.0 
0.964892 -0.00187883 0.0 
1.03445 0.0244908 0.0 
0.962935 0.235747 0.0 
1.06669 0.153509 0.0 
1.02951 -0.0451854 0.0 
0.0637959 -0.00605153 0.0 
1.16269 0.0279659 0.0 
1.09771 0.144669 0.0 
0.998699 0.0136396 0.0 
1.01535 0.0350101 0.0 
1.11506 -0.00599441 0.0 
0.982771 0.0211622 0.0 
0.934243 0.0467898 0.0 
1.03086 -0.0299429 0.0 
0.973261 0.0376986 0.0 
0.940822 0.109622 0.0 
0.93389 0.0593664 0.0 
0.752141 -0.0271177 0.0 
0.962767 0.00725596 0.0 
0.783955 -0.0487032 0.0 
1.00099 0.018428 0.0 
1.03191 0.0438647 0.0 
0.95369 -0.0101468 0.0 
0.961461 -0.00092049 0.0 
0.922358 0.0345091 0.0 
1.09907 0.25039 0.0 
0.972259 0.00621118 0.0 
0.939938 0.292436 0.0 
0.945208 0.0330781 0.0 
0.9744 0.227328 0.0 
0.847603 0.286435 0.0 
0.995178 0.00764677 0.0 
1.00111 0 0.0 
0.998811 0.0122867 0.0 
0.977216 0.00165214 0.0 
0.888331 0.154758 0.0 
0.127181 0.00891307 0.0 
1.01078 0.0437294 0.0 
0.980719 0.00728535 0.0 
0.999397 0.0126869 0.0 
0.915371 -0.0718486 0.0 
0.916359 0.0332967 0.0 
1.19323 -0.0355623 0.0 
0.998693 0.0125616 0.0 
0.952544 0.0753847 0.0 
0.680048 -0.0558845 0.0 
1.03352 -0.0241255 0.0 
0.935946 0.064122 0.0 
0.995251 0.0163979 0.0 
0.944246 0.0278111 0.0 
0.991026 0.0202571 0.0 
0.0748556 0.0114649 0.0 
0.673629 -0.047853 0.0 
1.04299 -0.00407053 0.0 
1.15623 0.0839764 0.0 
1.12185 -0.0174525 0.0 
0.997698 0.0108429 0.0 
0.982124 0.0187961 0.0 
1.00046 0.203288 0.0 
1.11352 0.159761 0.0 
0.576539 0.0957903 0.0 
0.950491 0.189972 0.0 
0.981498 0.019165 0.0 
0.250524 -0.0016852 0.0 
0.982493 0.0221055 0.0 
0.997277 0.0129102 0.0 
1.00031 0.0198672 0.0 
0.194671 -0.00769701 0.0 
0.163629 0.00251322 0.0 
0.981676 0.0304166 0.0 
0.333155 0.058158 0.0 
1.19158 0.0941626 0.0 
1.01 0.0432108 0.0 
0.980831 0.0326926 0.0 
0.999678 0.0197609 0.0 
0.977867 0.0113944 0.0 
0.930015 0.0691867 0.0 
0.976521 0.0260019 0.0 
0.851191 0.28565 0.0 
0.414707 -0.0241794 0.0 
0.192862 0.0117666 0.0 
0.968107 0.0136966 0.0 
0.974732 0.0123091 0.0 
1.05352 0.206131 0.0 
0.243878 -0.0152465 0.0 
0.939679 0.0212402 0.0 
1.03407 -0.0393789 0.0 
0.982138 0.246784 0.0 
0.999243 0.0137962 0.0 
0.922213 0.0823426 0.0 
0.97227 0.0313134 0.0 
0.929655 0.144029 0.0 
0.953373 0.157503 0.0 
1.00788 0.256293 0.0 
0.648279 -0.0218386 0.0 
0.93704 -0.0524153 0.0 
1.1163 0.0595632 0.0 
0.464338 0.0938359 0.0 
0.926096 -0.0597143 0.0 
0.0817187 0.00102718 0.0 
0.898726 -0.0127113 0.0 
0.742428 0.136439 0.0 
0.91473 -0.0664319 0.0 
0.921863 -0.0561737 0.0 
0.609648 0.16527 0.0 
1.04704 0.00634319 0.0 
0.940316 0.174217 0.0 
0.879316 -0.00472388 0.0 
0.928011 -0.0537724 0.0 
1.04 -0.00651992 0.0 
0.335969 0.0415268 0.0 
1.03701 -0.00967284 0.0 
0.865708 0.00764507 0.0 
0.893426 0.217868 0.0 
1.04769 -0.0021601 0.0 
0.906201 -0.0881059 0.0 
0.916364 0.183733 0.0 
0.233011 -0.0118131 0.0 
1.12991 0.0625336 0.0 
1.02984 0.171811 0.0 
0.829147 0.381 0.0 
1.10139 0.166867 0.0 
1.06192 0.2612 0.0 
0.893731 -0.0274504 0.0 
0.638723 -0.0674348 0.0 
0.977624 0.0336469 0.0 
0.513129 0.0622025 0.0 
0.918102 -0.0526397 0.0 
1.04535 0.0662394 0.0 
0.124418 -0.00688555 0.0 
1.04282 0.264879 0.0 
1.05835 0.0403077 0.0 
0.878573 0.105806 0.0 
1.00503 0.0221588 0.0 
0.89241 0.0673867 0.0 
0.0816334 0.00474334 0.0 
0.852874 0.0768262 0.0 
0.94925 0.0372133 0.0 
0.947168 0.00404534 0.0 
1.17347 -0.0405677 0.0 
0.762141 0.335802 0.0 
0.84721 0.0895634 0.0 
1.02876 0.073985 0.0 
1.08126 -0.0962551 0.0 
0.920774 -0.0468616 0.0 
1.03785 0.273051 0.0 
0.964619 0.0171102 0.0 
0.995682 0.0406421 0.0 
0.909929 0.0775116 0.0 
0.924187 0.113287 0.0 
0.910408 0.0357521 0.0 
1.00894 0.027733 0.0 
0.919435 0.106567 0.0 
0.916672 0.221598 0.0 
0.999174 0.0128762 0.0 
1.09123 -0.0719414 0.0 
0.250809 -0.0105004 0.0 
1.05121 0.252531 0.0 
0.96545 0.203994 0.0 
0.806535 0.151703 0.0 
0.826517 0.0385211 0.0 
0.88597 0.0301469 0.0 
1.04066 0.30623 0.0 
0.99955 0.0175895 0.0 
1.12415 0.142315 0.0 
1.03217 0.227708 0.0 
0.88601 -0.0482074 0.0 
0.922686 -0.0017691 0.0 
0.85781 0.158973 0.0 
0.910691 0.0209253 0.0 
0.884846 0.0151116 0.0 
0.932064 -0.0460801 0.0 
0.933462 0.208069 0.0 
0.995629 0.0306343 0.0 
0.999552 0.0150805 0.0 
0.077131 0.00785841 0.0 
0.0753162 0.00631565 0.0 
0.912648 0.0280654 0.0 
0.522944 0.153531 0.0 
1.03818 -0.00822455 0.0 
0.921454 -0.0162619 0.0 
0.977922 -0.00084892 0.0 
0.902273 0.0769663 0.0 
0.841469 0.00698107 0.0 
1.08121 -0.06833 0.0 
0.954919 0.0081682 0.0 
0.975442 0.00929792 0.0 
1.08287 0.269107 0.0 
0.17766 -0.00195057 0.0 
0.929587 0.300928 0.0 
0.972916 0.00279327 0.0 
0.988822 0.0546426 0.0 
1.06796 -0.229626 0.0 
0.968879 0.00484933 0.0 
0.961593 0.0127698 0.0 
0.997686 0.0134705 0.0 
1.0375 -0.00939559 0.0 
0.789851 0.109364 0.0 
0.904189 0.0186566 0.0 
0.990888 0.00558748 0.0 
1.02737 -0.183124 0.0 
0.99513 0.0156695 0.0 
0.935285 0.0243958 0.0 
0.805356 0.168627 0.0 
0.949864 -0.00838915 0.0 
0.998108 0.0103167 0.0 
0.938562 0.00489893 0.0 
0.187517 0.128418 0.0 
0.94369 -0.00829339 0.0 
1.06479 -0.0106463 0.0 
0.952918 0.289495 0.0 
0.0565651 -0.003033 0.0 
1.1 0.256552 0.0 
0.987947 0.0151044 0.0 
0.841894 -0.10001 0.0 
0.968773 0.0019992 0.0 
0.959502 0.00934058 0.0 
0.959756 0.00471456 0.0 
0.540987 0.134621 0.0 
0.961802 0.00201848 0.0 
0.955884 -0.0134992 0.0 
0.647895 0.184274 0.0 
1.03423 -0.0131823 0.0 
1.03517 0.0464702 0.0 
0.994407 0.266858 0.0 
0.98094 0.0210937 0.0 
0.975342 0.0293462 0.0 
0.964575 0.00410596 0.0 
0.893167 0.0131629 0.0 
0.958845 -0.0178191 0.0 
0.106687 0.000759871 0.0 
0.968633 -7.7695e-05 0.0 
1.05963 0.0160088 0.0 
0.875657 0.168593 0.0 
0.99646 0.0122515 0.0 
1.06571 0.026601 0.0 
1.05773 0.0966782 0.0 
1.10157 -0.072096 0.0 
1.09651 0.106932 0.0 
0.976478 -0.00282595 0.0 
0.876274 0.183563 0.0 
0.996598 0.0146849 0.0 
0.99693 0.0113193 0.0 
0.889551 -0.0410778 0.0 
0.9786 0.0260938 0.0 
1.16296 -0.22749 0.0 
0.635632 0.0157781 0.0 
0.941835 0.0419164 0.0 
1.01618 0.303576 0.0 
0.9064 0.353741 0.0 
0.838615 0.132535 0.0 
1.15952 0.0787216 0.0 
0.153314 0.133918 0.0 
1.01644 0.290577 0.0 
1.0644 0.267086 0.0 
1.03903 -0.0065605 0.0 
0.938541 0.0947768 0.0 
0.041133 0.00580727 0.0 
1.17507 0.149948 0.0 
0.977693 0.0322276 0.0 
0.909619 0.122599 0.0 
1.12478 0.221539 0.0 
0.850988 0.12473 0.0 
-0.0456732 -0.0186643 0.0 
0.978795 0.0303467 0.0 
0.924854 0.0740722 0.0 
0.739402 0.140891 0.0 
0.97964 0.0270656 0.0 
0.911332 0.150732 0.0 
0.995846 0.0127319 0.0 
0.902788 0.101955 0.0 
0.97913 0.028244 0.0 
0.853614 0.0559565 0.0 
0.830703 0.0227518 0.0 
0.903768 0.164795 0.0 
0.998749 0.011571 0.0 
0.968844 -0.00457343 0.0 
0.980106 0.025395 0.0 
0.999074 0.0178606 0.0 
0.962675 -0.00460581 0.0 
0.961649 -0.00829684 0.0 
0.966139 -0.00405914 0.0 
0.938076 -0.0414564 0.0 
0.925656 0.058509 0.0 
0.926209 0.0885955 0.0 
1.04105 -0.00197722 0.0 
0.989704 0.0323921 0.0 
1.06435 0.0277799 0.0 
0.999177 0.01474 0.0 
1.07815 -0.00765641 0.0 
1.00522 0.0807661 0.0 
0.949592 0.0135045 0.0 
0.976839 0.027408 0.0 
1.04901 -0.161545 0.0 
1.09925 0.244558 0.0 
1.12337 0.232956 0.0 
0.933195 -0.0321406 0.0 
0.999071 0.0142621 0.0 
0.951091 0.0111478 0.0 
0.996342 0.0138261 0.0 
0.979502 0.005553 0.0 
1.05501 0.00927652 0.0 
1.04781 -0.172216 0.0 
0.0607879 -0.000130977 0.0 