<VTKFile type="UnstructuredGrid" version="0.1" byte_order="LittleEndian">
  <UnstructuredGrid>
    <Piece NumberOfPoints="9712" NumberOfCells="19403">
      <Points>
        <DataArray type = "Float64" NumberOfComponents="3" format="ascii">
-5 -7 0.0 
15.5 -7 0.0 
15.5 7 0.0 
-5 7 0.0 
-1.6546 1.77742 0.0 
-2.13867 1.86504 0.0 
-1.83467 1.79143 0.0 
1.47969 -2.21179 0.0 
1.36003 -2.38618 0.0 
1.4346 -2.45048 0.0 
-2.04214 1.94165 0.0 
-0.20425 1.17338 0.0 
-2.07648 1.81911 0.0 
-2.00827 1.89081 0.0 
-2.05492 1.98872 0.0 
0.192693 0.536219 0.0 
0.154285 1.75648 0.0 
1.1379 -1.62057 0.0 
-2.11226 1.96977 0.0 
-1.74119 1.75327 0.0 
1.14499 -1.58184 0.0 
-1.94373 2.37229 0.0 
1.50619 -0.664239 0.0 
1.99658 -1.76705 0.0 
1.7229 -1.18344 0.0 
-1.97759 2.52091 0.0 
-0.768046 0.387136 0.0 
1.32657 -1.43969 0.0 
1.90142 0.24821 0.0 
-0.93264 1.51038 0.0 
1.09557 0.967223 0.0 
0.627111 0.757352 0.0 
-2.05707 2.31394 0.0 
1.34027 -2.45136 0.0 
-0.725097 0.397516 0.0 
-0.666094 2.30428 0.0 
-0.73829 -0.279965 0.0 
1.73336 -1.08822 0.0 
1.88466 -1.24421 0.0 
1.50539 -1.23752 0.0 
1.65978 -1.30759 0.0 
-0.0409718 0.542603 0.0 
1.6005 -1.1227 0.0 
1.78439 -0.941488 0.0 
1.86015 -1.54236 0.0 
1.49308 -1.40058 0.0 
2.34892 -1.47149 0.0 
2.13832 -1.3246 0.0 
1.73061 0.751302 0.0 
-0.580328 0.526903 0.0 
1.51013 -2.1595 0.0 
-1.65424 3.45779 0.0 
-1.51397 2.46352 0.0 
1.42773 -2.17867 0.0 
0.304353 0.497878 0.0 
2.24628 0.228293 0.0 
1.51258 -2.27933 0.0 
-1.60346 3.44299 0.0 
-1.71408 2.36227 0.0 
2.17421 0.530405 0.0 
2.42 0.316451 0.0 
-1.63642 3.31911 0.0 
2.53942 -0.995036 0.0 
0.750003 0.810439 0.0 
2.04736 0.40918 0.0 
1.19615 -1.50641 0.0 
2.13474 0.494063 0.0 
0.547924 0.306722 0.0 
-0.2059 0.361394 0.0 
2.2127 0.547693 0.0 
1.41442 -0.597105 0.0 
1.52233 -1.46252 0.0 
-1.84114 2.53924 0.0 
-5 -2.53894 0.0 
2.32127 0.371156 0.0 
-1.69186 3.33379 0.0 
-0.964779 0.566136 0.0 
-1.81311 2.48387 0.0 
-1.78557 3.38304 0.0 
1.48278 0.914136 0.0 
2.51531 -1.89689 0.0 
1.20982 -0.330514 0.0 
0.408434 0.319657 0.0 
0.95023 0.60993 0.0 
-0.752349 0.440796 0.0 
-0.998248 0.564019 0.0 
-1.73165 3.36299 0.0 
1.24353 -1.49063 0.0 
0.942095 0.817189 0.0 
-1.77816 2.47096 0.0 
2.48183 -1.95479 0.0 
1.33574 -1.77854 0.0 
0.823335 1.12085 0.0 
-0.36308 0.598468 0.0 
0.745466 0.783414 0.0 
-1.88344 2.8521 0.0 
-1.79794 3.52221 0.0 
3.0087 0.272815 0.0 
-1.81486 2.66014 0.0 
0.375911 -0.403668 0.0 
-0.68323 0.487288 0.0 
-0.34187 -0.274923 0.0 
-0.293875 -0.201368 0.0 
1.61018 -1.767 0.0 
-0.448275 -0.347267 0.0 
-1.08687 0.352015 0.0 
1.29257 -1.76345 0.0 
1.67658 -1.49551 0.0 
1.19193 0.533009 0.0 
1.21582 -1.91654 0.0 
-0.36438 -0.346225 0.0 
-0.92534 0.330346 0.0 
2.3836 0.287756 0.0 
1.68841 0.639887 0.0 
1.59001 -1.89458 0.0 
1.14818 -1.92143 0.0 
1.28996 -2.19426 0.0 
1.37603 -1.8763 0.0 
1.23834 -2.09141 0.0 
1.11702 -2.06287 0.0 
0.691829 0.463808 0.0 
1.46523 -2.03459 0.0 
-0.123547 0.424486 0.0 
-1.3311 2.12174 0.0 
1.08169 -1.90074 0.0 
1.87975 -2.15971 0.0 
1.10131 -1.78593 0.0 
1.13722 0.534683 0.0 
1.42465 -1.59031 0.0 
-1.45435 2.47344 0.0 
1.41998 -1.98207 0.0 
0.463917 1.8787 0.0 
-1.72896 2.89571 0.0 
1.12419 -1.84975 0.0 
1.59054 -1.20634 0.0 
0.46124 0.621002 0.0 
0.806438 -1.00204 0.0 
2.1804 0.349761 0.0 
2.21142 -1.6418 0.0 
1.10152 -0.274558 0.0 
2.23388 0.387302 0.0 
0.137769 0.567007 0.0 
1.88736 0.267391 0.0 
1.26821 -1.94267 0.0 
0.21033 -0.605707 0.0 
2.61094 -1.50046 0.0 
0.819837 0.743337 0.0 
-1.4303 2.07799 0.0 
1.82013 0.322126 0.0 
-1.47649 2.2099 0.0 
1.15745 -0.274223 0.0 
-1.81198 2.24994 0.0 
2.34337 -1.67775 0.0 
-1.13329 1.37877 0.0 
-0.828215 1.05292 0.0 
2.46752 -1.53452 0.0 
-1.69915 2.18529 0.0 
-0.404416 -0.286271 0.0 
-1.23501 1.31766 0.0 
2.11757 -1.50659 0.0 
-1.08535 1.28274 0.0 
2.58548 -1.70783 0.0 
0.24729 -0.572345 0.0 
-1.66963 2.25319 0.0 
1.58322 -1.62308 0.0 
-0.367923 -0.306026 0.0 
0.391521 1.44485 0.0 
1.88977 -2.46319 0.0 
1.5943 -1.53613 0.0 
-0.357143 -0.23651 0.0 
0.82621 0.80563 0.0 
-1.59261 2.31884 0.0 
-0.47244 -0.307516 0.0 
-0.40334 -0.326688 0.0 
-2.00063 2.11543 0.0 
1.55514 -1.95078 0.0 
-1.40431 2.26352 0.0 
-0.0265928 0.573714 0.0 
1.17093 1.10579 0.0 
-1.77907 2.22111 0.0 
0.682788 0.329642 0.0 
-0.54475 2.15572 0.0 
-0.288592 0.289433 0.0 
-1.43199 2.16349 0.0 
-1.45029 2.25134 0.0 
1.5535 -1.79992 0.0 
-1.06406 1.08381 0.0 
1.72954 1.44966 0.0 
0.582806 0.515814 0.0 
0.582876 -0.679913 0.0 
1.32351 -0.355916 0.0 
-0.47505 0.577092 0.0 
-0.371167 0.227715 0.0 
1.52235 -1.8529 0.0 
-0.429822 -0.244811 0.0 
-0.53237 -0.24648 0.0 
-0.393983 -0.210364 0.0 
0.652895 0.317361 0.0 
1.55812 -1.70765 0.0 
1.63021 0.325622 0.0 
0.442731 0.358729 0.0 
1.22925 -1.85192 0.0 
1.43517 -1.79082 0.0 
1.39317 -1.6984 0.0 
1.62965 0.295952 0.0 
0.905462 0.793465 0.0 
1.04036 -1.64811 0.0 
2.1131 -1.72466 0.0 
-0.743911 0.369492 0.0 
1.14427 -1.99314 0.0 
1.26033 -2.0209 0.0 
-1.70955 2.07308 0.0 
0.910023 -1.62976 0.0 
-0.313059 -0.0954838 0.0 
-1.77334 2.3988 0.0 
-0.311958 -0.24042 0.0 
2.53315 0.325608 0.0 
-0.273728 -0.226719 0.0 
-0.646401 0.379627 0.0 
1.52426 0.616074 0.0 
2.21703 -1.79499 0.0 
2.71108 0.312216 0.0 
0.759924 1.093 0.0 
-1.69271 2.12368 0.0 
0.255794 0.540969 0.0 
0.0534699 0.562158 0.0 
-1.5679 2.22408 0.0 
-1.66906 2.45165 0.0 
-1.51895 2.09449 0.0 
2.16948 0.408238 0.0 
-0.818806 0.680638 0.0 
-0.826868 0.642087 0.0 
0.519855 0.276992 0.0 
-0.716682 1.18602 0.0 
-0.649974 -0.148775 0.0 
0.457368 0.256619 0.0 
0.517407 0.248194 0.0 
0.327129 0.39802 0.0 
0.533249 -0.878832 0.0 
-0.870735 0.634904 0.0 
1.19219 1.07557 0.0 
2.35922 0.366028 0.0 
-1.66911 3.66723 0.0 
-0.857603 1.54934 0.0 
-0.379189 2.30131 0.0 
-0.941007 1.36523 0.0 
-1.58662 2.49682 0.0 
-0.545297 0.352587 0.0 
0.327944 -0.744683 0.0 
-0.312756 0.524741 0.0 
-0.107843 0.506233 0.0 
2.13378 -2.36584 0.0 
1.52689 0.686953 0.0 
-0.119983 0.327909 0.0 
1.02161 -1.53072 0.0 
1.51507 0.39695 0.0 
-0.674484 1.02605 0.0 
-0.564724 -0.148435 0.0 
0.409388 0.290913 0.0 
0.252349 0.30842 0.0 
-1.09282 1.45998 0.0 
1.45674 -1.54484 0.0 
-0.266777 0.782169 0.0 
0.91327 -0.874389 0.0 
1.01208 1.13309 0.0 
-0.897136 1.35063 0.0 
-0.846484 0.489353 0.0 
1.47563 0.663768 0.0 
-1.22282 2.05021 0.0 
0.348906 0.416714 0.0 
1.41913 0.964648 0.0 
0.933289 -0.839038 0.0 
-1.85066 1.40221 0.0 
0.142477 1.99435 0.0 
-0.717809 0.341194 0.0 
-2.21177 1.41584 0.0 
0.396571 0.350929 0.0 
1.25171 -1.60721 0.0 
0.736798 0.393502 0.0 
-0.661427 0.19031 0.0 
2.18751 -2.32769 0.0 
-1.00908 1.6747 0.0 
2.21416 -2.07269 0.0 
-0.779194 0.642011 0.0 
-1.02312 1.3939 0.0 
2.08809 -2.24876 0.0 
-5 -4.48794 0.0 
1.61792 -1.46215 0.0 
-0.974627 1.38947 0.0 
1.81166 -2.48446 0.0 
-1.03635 1.47474 0.0 
0.869004 -1.74424 0.0 
0.956579 -1.78598 0.0 
1.07495 0.540689 0.0 
-1.08005 1.37763 0.0 
0.914755 -0.803058 0.0 
0.611759 -0.305322 0.0 
1.70043 -1.41356 0.0 
0.75708 -0.631542 0.0 
1.21215 1.01979 0.0 
-0.586902 0.440014 0.0 
1.9251 -2.56336 0.0 
-1.58261 1.91091 0.0 
-0.746541 1.26087 0.0 
-1.49915 1.13657 0.0 
-1.46675 0.971536 0.0 
-1.05881 0.930935 0.0 
0.71826 0.415078 0.0 
-0.701697 0.526982 0.0 
-1.56194 2.05157 0.0 
1.15988 0.991244 0.0 
1.38676 0.949615 0.0 
-1.61697 2.02689 0.0 
1.13748 -0.357331 0.0 
-1.8456 2.04561 0.0 
0.253686 -0.756334 0.0 
-1.53603 1.86509 0.0 
-1.43465 0.924137 0.0 
-1.00273 1.27416 0.0 
-1.03063 1.5132 0.0 
-1.32483 1.94769 0.0 
-0.965552 1.61445 0.0 
-0.239859 -0.245939 0.0 
-5 3.01776 0.0 
-5 -0.248741 0.0 
0.517491 1.87079 0.0 
-1.18776 1.8875 0.0 
2.27458 0.36201 0.0 
1.9794 0.331487 0.0 
0.503086 0.510306 0.0 
1.26387 -0.370702 0.0 
1.24483 0.550197 0.0 
1.12871 0.979556 0.0 
-1.48659 1.83259 0.0 
1.0672 0.958366 0.0 
-1.16856 1.61214 0.0 
-0.218637 -0.230696 0.0 
-5 1.81431 0.0 
1.37014 1.04658 0.0 
0.0950623 0.557621 0.0 
-1.23613 1.67303 0.0 
0.953731 -0.709843 0.0 
2.07568 -1.85385 0.0 
2.10836 -1.82014 0.0 
-0.994952 1.33552 0.0 
-1.86986 1.52312 0.0 
0.515812 0.447542 0.0 
0.842446 0.992035 0.0 
-1.42353 1.8223 0.0 
2.091 0.354014 0.0 
-0.937663 0.401428 0.0 
-1.69305 1.41997 0.0 
-1.82465 1.55127 0.0 
2.15192 0.384657 0.0 
-1.17972 1.37998 0.0 
-0.718866 -0.0130647 0.0 
-0.927867 0.290435 0.0 
1.56509 0.300406 0.0 
-5 -3.04052 0.0 
9.98027 -7 0.0 
0.176009 0.694641 0.0 
0.597997 -0.559941 0.0 
-0.546583 0.4849 0.0 
0.602022 -0.657834 0.0 
2.17737 0.379672 0.0 
1.89809 0.287017 0.0 
-1.58883 1.35796 0.0 
-1.2284 1.37063 0.0 
-1.43937 1.35342 0.0 
-1.59664 1.47263 0.0 
0.577431 -0.368705 0.0 
1.5263 -1.51093 0.0 
0.479666 0.796509 0.0 
0.894995 1.01463 0.0 
2.22312 0.363016 0.0 
-0.320562 0.726481 0.0 
-1.30188 2.41386 0.0 
0.43802 0.434693 0.0 
-0.761697 0.762024 0.0 
1.45688 -1.49591 0.0 
-0.65072 0.676835 0.0 
1.6097 -1.41509 0.0 
2.25768 0.399237 0.0 
1.85518 0.299709 0.0 
2.14618 0.290757 0.0 
2.25222 0.371677 0.0 
-1.93063 2.91367 0.0 
1.52717 0.319618 0.0 
1.67964 -1.62237 0.0 
1.35962 -0.439169 0.0 
1.63007 -1.54335 0.0 
-5 -0.764504 0.0 
-1.61377 2.62271 0.0 
1.73865 -1.57725 0.0 
-0.908306 1.23669 0.0 
1.60766 0.330292 0.0 
1.82509 -1.63054 0.0 
1.90521 0.312457 0.0 
1.98719 -1.6488 0.0 
-0.528791 0.39225 0.0 
1.94978 -2.39003 0.0 
-0.472559 0.718465 0.0 
-1.28058 2.26572 0.0 
0.881581 -0.556282 0.0 
2.26369 0.42542 0.0 
0.917309 -1.69962 0.0 
0.853954 -1.60945 0.0 
1.30086 -0.404316 0.0 
1.99565 -2.46852 0.0 
1.49445 -1.47573 0.0 
1.68285 0.863315 0.0 
2.03074 -2.37549 0.0 
2.52279 -0.506167 0.0 
2.56049 -1.76899 0.0 
-1.52889 2.56597 0.0 
2.81136 -0.570221 0.0 
1.3688 -1.46095 0.0 
1.29524 -0.373946 0.0 
-0.350504 0.671928 0.0 
-0.590282 0.564035 0.0 
-0.054366 2.16706 0.0 
1.50819 1.22548 0.0 
-0.548222 0.453941 0.0 
2.19936 -2.5207 0.0 
12.2704 -7 0.0 
1.6811 -1.36761 0.0 
-0.449261 0.559535 0.0 
0.537017 -0.527614 0.0 
-0.00733391 0.553304 0.0 
0.494109 -0.356396 0.0 
-0.7939 0.0827441 0.0 
0.39888 0.467333 0.0 
-1.04288 1.34095 0.0 
0.605019 1.02824 0.0 
0.847559 0.374727 0.0 
1.00336 0.618307 0.0 
2.1955 0.399186 0.0 
0.656973 0.401158 0.0 
-0.998431 2.73564 0.0 
[...]
<PointData>
  <DataArray type = "Float64" Name="VitesseP1" NumberOfComponents="3" format="ascii">
1 0 0.0 
1.09396 0 0.0 
1.03733 0 0.0 
1 0 0.0 
0.994688 0.0155195 0.0 
0.996955 0.0108922 0.0 
0.995554 0.0133457 0.0 
1.04318 -0.00330962 0.0 
1.04527 -0.00418753 0.0 
1.05094 -0.0037095 0.0 
0.997792 0.0118073 0.0 
0.98685 0.0723961 0.0 
0.996651 0.0112206 0.0 
0.996865 0.0119983 0.0 
0.998936 0.011808 0.0 
0.992359 0.218198 0.0 
1.02025 0.053046 0.0 
1.0497 -0.025962 0.0 
0.998859 0.0112368 0.0 
0.995092 0.0142654 0.0 
1.05522 -0.0269403 0.0 
0.998912 0.0130991 0.0 
1.16076 -0.0264997 0.0 
1.04689 0.0124032 0.0 
1.06471 -0.00211068 0.0 
0.998886 0.0126775 0.0 
0.944614 0.00855993 0.0 
1.06392 -0.0220215 0.0 
0.0646422 0.000647713 0.0 
0.988934 0.0310726 0.0 
1.1439 0.0685468 0.0 
1.11034 0.142602 0.0 
0.998895 0.0121215 0.0 
1.03494 -0.0174008 0.0 
0.941458 0.0121494 0.0 
1.00557 0.0299009 0.0 
0.936949 -0.0514886 0.0 
1.08581 -0.00200424 0.0 
1.0576 0.00870029 0.0 
1.05489 -0.0157319 0.0 
1.0578 -0.00511431 0.0 
0.92699 0.151571 0.0 
1.07611 -0.0113205 0.0 
1.12753 0.00124115 0.0 
1.06934 0.00715699 0.0 
1.06442 -0.013804 0.0 
1.06475 0.0348517 0.0 
1.05869 0.0244962 0.0 
1.20301 0.0313795 0.0 
0.939626 0.0354887 0.0 
1.04181 -0.00332937 0.0 
1.00248 0.0119776 0.0 
0.999895 0.0171876 0.0 
1.04123 -0.00490845 0.0 
1.03775 0.243305 0.0 
0.0436105 -0.00614475 0.0 
1.04506 -0.0022415 0.0 
1.00269 0.0123636 0.0 
0.999153 0.0153253 0.0 
1.15768 0.00385506 0.0 
0.0983754 -0.00208688 0.0 
1.00241 0.012633 0.0 
1.09812 0.0611561 0.0 
1.1234 0.121226 0.0 
0.530739 0.0056385 0.0 
1.06152 -0.026886 0.0 
1.05602 0.0052752 0.0 
0.555337 0.134641 0.0 
0.862831 0.0853641 0.0 
1.18253 -0.000580304 0.0 
1.20328 -0.0382697 0.0 
1.06792 -0.0113761 0.0 
0.999107 0.0137967 0.0 
1 0 0.0 
0.27875 -0.00826604 0.0 
1.00218 0.0122282 0.0 
0.968184 0.010433 0.0 
0.999128 0.0141517 0.0 
1.00178 0.0114418 0.0 
1.1761 0.0370868 0.0 
1.03836 0.0245276 0.0 
0.751208 -0.0406456 0.0 
0.94819 0.263144 0.0 
1.17375 0.116138 0.0 
0.946249 0.0140932 0.0 
0.969994 0.00873038 0.0 
1.00207 0.0118573 0.0 
1.06291 -0.0250933 0.0 
1.14437 0.0982032 0.0 
0.999194 0.0144961 0.0 
1.04484 0.0288915 0.0 
1.04244 -0.0142741 0.0 
1.09781 0.0796733 0.0 
0.935603 0.0699275 0.0 
1.1257 0.125388 0.0 
0.999945 0.0125812 0.0 
1.00215 0.0106809 0.0 
-0.0176425 -0.147168 0.0 
0.999305 0.0137191 0.0 
1.19129 -0.234648 0.0 
0.944147 0.0228632 0.0 
0.918841 -0.0885305 0.0 
0.91561 -0.0746441 0.0 
1.04694 -0.00369969 0.0 
0.92447 -0.0784312 0.0 
0.967241 -0.00828813 0.0 
1.04209 -0.0162516 0.0 
1.06977 -0.00272425 0.0 
1.19655 0.0848051 0.0 
1.03798 -0.0157557 0.0 
0.920179 -0.0887837 0.0 
0.954935 -0.00378909 0.0 
0.0632532 0.00548918 0.0 
1.20492 0.0383932 0.0 
1.04418 -0.00348077 0.0 
1.03639 -0.017617 0.0 
1.03877 -0.00754085 0.0 
1.04183 -0.0111321 0.0 
1.03587 -0.0114689 0.0 
1.03281 -0.0165671 0.0 
1.16362 0.184741 0.0 
1.03957 -0.00592888 0.0 
0.87737 0.125938 0.0 
0.99916 0.0206726 0.0 
1.0352 -0.0202091 0.0 
1.04194 0.00562061 0.0 
1.03722 -0.0226222 0.0 
1.19615 0.0921763 0.0 
1.06152 -0.0143109 0.0 
1.00015 0.0178037 0.0 
1.03948 -0.008054 0.0 
1.03022 0.0463903 0.0 
1.00078 0.0135947 0.0 
1.03697 -0.020243 0.0 
1.05959 -0.0106845 0.0 
1.08771 0.189402 0.0 
1.06878 -0.0733698 0.0 
0.130016 0.00654056 0.0 
1.0549 0.0235175 0.0 
0.455843 -0.039152 0.0 
0.371596 -0.00401646 0.0 
0.977782 0.196581 0.0 
0.0696394 -0.00647997 0.0 
1.0381 -0.0135483 0.0 
1.03084 -0.160712 0.0 
1.05259 0.0504889 0.0 
1.13994 0.121334 0.0 
0.998853 0.0192986 0.0 
0.0775957 0.00481739 0.0 
0.999032 0.0183703 0.0 
0.40912 -0.0170323 0.0 
0.998827 0.0144335 0.0 
1.04647 0.0283488 0.0 
0.985321 0.024347 0.0 
0.973586 0.0341853 0.0 
1.0576 0.0394282 0.0 
0.998661 0.0156739 0.0 
0.922844 -0.0796713 0.0 
0.984316 0.020778 0.0 
1.06848 0.0211394 0.0 
0.981762 0.0252134 0.0 
1.03383 0.0353528 0.0 
1.04016 -0.171214 0.0 
0.998951 0.0159566 0.0 
1.05921 -0.00629257 0.0 
0.920265 -0.0860471 0.0 
1.035 0.0693159 0.0 
1.04863 -0.00144157 0.0 
1.06831 -0.00670573 0.0 
0.916489 -0.0818496 0.0 
1.13343 0.113147 0.0 
0.999271 0.0167251 0.0 
0.92774 -0.0728685 0.0 
0.922307 -0.0827448 0.0 
0.99867 0.0125228 0.0 
1.04193 -0.00422375 0.0 
0.999534 0.0191841 0.0 
0.93907 0.151527 0.0 
1.13229 0.0497162 0.0 
0.998769 0.0147891 0.0 
0.631727 0.110727 0.0 
1.00623 0.0339785 0.0 
0.863399 0.045306 0.0 
0.998989 0.0190857 0.0 
0.999337 0.0186101 0.0 
1.04521 -0.00566351 0.0 
0.974121 0.02373 0.0 
1.07391 -0.0426513 0.0 
1.14148 0.200184 0.0 
1.109 -0.129127 0.0 
0.869224 -0.0308829 0.0 
0.938302 0.0517467 0.0 
0.875079 0.0162537 0.0 
1.04423 -0.00630179 0.0 
0.924089 -0.0732337 0.0 
0.933217 -0.0627177 0.0 
0.918805 -0.0743793 0.0 
0.579513 0.11095 0.0 
1.05024 -0.00649375 0.0 
0.111824 0.0174266 0.0 
1.03674 0.265211 0.0 
1.03937 -0.0166808 0.0 
1.04394 -0.0103489 0.0 
1.04869 -0.0136842 0.0 
0.0918926 0.0255296 0.0 
1.14348 0.104866 0.0 
1.04367 -0.0288889 0.0 
1.0479 0.0177263 0.0 
0.941507 0.00839762 0.0 
1.034 -0.0164875 0.0 
1.03612 -0.0121884 0.0 
0.998781 0.0155641 0.0 
1.04081 -0.0342132 0.0 
0.898555 -0.0656391 0.0 
0.999118 0.0146677 0.0 
0.909722 -0.0858706 0.0 
0.163456 -0.0107933 0.0 
0.88784 -0.0840653 0.0 
0.932701 0.0159201 0.0 
1.20252 0.0492392 0.0 
1.04386 0.02119 0.0 
0.240626 -0.0250263 0.0 
1.09711 0.0872742 0.0 
0.998607 0.0157615 0.0 
1.01907 0.223173 0.0 
0.951622 0.177295 0.0 
0.998958 0.0171887 0.0 
0.999406 0.0155946 0.0 
0.998814 0.0180121 0.0 
0.520059 -0.000815052 0.0 
0.967756 0.0249025 0.0 
0.965457 0.0224125 0.0 
0.413287 0.135802 0.0 
0.976713 0.0406123 0.0 
0.940188 -0.0445681 0.0 
0.30063 0.101437 0.0 
0.374563 0.184491 0.0 
1.06306 0.297009 0.0 
1.06914 -0.102942 0.0 
0.967215 0.0193306 0.0 
1.13993 0.0501064 0.0 
0.26405 -0.00792424 0.0 
1.0007 0.0112634 0.0 
0.99055 0.0333799 0.0 
1.00974 0.0343636 0.0 
0.983961 0.030787 0.0 
0.999721 0.0163106 0.0 
0.918821 0.0211843 0.0 
1.05875 -0.131579 0.0 
0.919071 0.0755402 0.0 
0.9088 0.131915 0.0 
1.04795 0.0142731 0.0 
1.19427 0.046126 0.0 
0.829929 0.116647 0.0 
1.05591 -0.0337272 0.0 
0.548465 0.0228412 0.0 
0.975897 0.0432693 0.0 
0.932576 -0.0504546 0.0 
0.701025 0.19466 0.0 
0.898886 0.339027 0.0 
0.987429 0.0259895 0.0 
1.06601 -0.0134211 0.0 
0.967416 0.0861075 0.0 
1.11317 -0.0768024 0.0 
1.11258 0.062641 0.0 
0.983348 0.0324361 0.0 
0.956351 0.0119044 0.0 
1.19459 0.051079 0.0 
0.99926 0.0226727 0.0 
1.07737 0.284084 0.0 
1.16893 0.0383449 0.0 
1.12364 -0.0778363 0.0 
0.99414 0.00993008 0.0 
1.01864 0.0445907 0.0 
0.93752 0.00728972 0.0 
0.997258 0.00827524 0.0 
1.01791 0.28448 0.0 
1.05507 -0.0215655 0.0 
0.998641 0.151803 0.0 
0.925189 -0.00677601 0.0 
1.03746 0.0334509 0.0 
0.992965 0.0284122 0.0 
1.03776 0.0179129 0.0 
0.962876 0.0256017 0.0 
0.985172 0.0279919 0.0 
1.03786 0.00865268 0.0 
1 0 0.0 
1.06907 -0.00615591 0.0 
0.984904 0.0296356 0.0 
1.04665 -0.000655903 0.0 
0.987729 0.0277648 0.0 
1.03107 -0.0313042 0.0 
1.03337 -0.0273984 0.0 
1.19346 0.101182 0.0 
0.984959 0.0260293 0.0 
1.1293 -0.0824518 0.0 
0.912975 -0.146756 0.0 
1.06754 -0.00197144 0.0 
1.12773 -0.114981 0.0 
1.14862 0.0527185 0.0 
0.931427 0.0271687 0.0 
1.03701 0.00159865 0.0 
0.99603 0.0169537 0.0 
0.979961 0.0389582 0.0 
0.984164 0.0109462 0.0 
0.99553 0.0102033 0.0 
0.990109 0.0210686 0.0 
1.08875 0.168783 0.0 
0.94868 0.0244028 0.0 
0.998779 0.0173963 0.0 
1.14711 0.0601502 0.0 
1.16745 0.0420499 0.0 
0.998521 0.0166512 0.0 
0.930035 -0.0574037 0.0 
0.999127 0.01397 0.0 
1.04287 -0.128336 0.0 
0.995135 0.0175468 0.0 
1.00022 0.0108513 0.0 
0.980909 0.0280947 0.0 
0.988978 0.0279989 0.0 
0.996688 0.021094 0.0 
0.992049 0.0298059 0.0 
0.882203 -0.105862 0.0 
1 0 0.0 
1 0 0.0 
1.03217 0.0457288 0.0 
0.995385 0.0237284 0.0 
0.213618 -0.00241235 0.0 
0.0574767 0.0115702 0.0 
1.11704 0.217355 0.0 
0.958434 -0.0456342 0.0 
1.20109 0.0786203 0.0 
1.14559 0.064209 0.0 
0.994571 0.018252 0.0 
1.14229 0.072177 0.0 
0.991941 0.0243061 0.0 
0.948295 -0.164223 0.0 
1 0 0.0 
1.15926 0.0355577 0.0 
0.961924 0.189921 0.0 
0.992879 0.0228159 0.0 
1.14382 -0.0854631 0.0 
1.0441 0.0148651 0.0 
1.04436 0.0165763 0.0 
0.983029 0.0287448 0.0 
0.995402 0.0111608 0.0 
1.12829 0.232597 0.0 
1.11924 0.091257 0.0 
0.994328 0.0192973 0.0 
0.144087 0.00436885 0.0 
0.958592 0.00100029 0.0 
0.992183 0.0119561 0.0 
0.995332 0.0118656 0.0 
0.340773 0.00176341 0.0 
0.985664 0.0229633 0.0 
0.948521 -0.0294834 0.0 
0.953736 -0.00700123 0.0 
0.0962288 -0.0104476 0.0 
1 0 0.0 
1.07151 0 0.0 
1.00812 0.166131 0.0 
1.11996 -0.146347 0.0 
0.932181 0.035653 0.0 
1.1129 -0.130432 0.0 
0.307783 0.00108733 0.0 
0.080926 -0.00358093 0.0 
0.989741 0.0126843 0.0 
0.985793 0.0214862 0.0 
0.987558 0.0158066 0.0 
0.991752 0.0140976 0.0 
1.10807 -0.17365 0.0 
1.06802 -0.0104532 0.0 
1.08022 0.147223 0.0 
1.12228 0.0842159 0.0 
0.209961 0.00120397 0.0 
0.956932 0.0789741 0.0 
1.00067 0.019864 0.0 
1.11124 0.257404 0.0 
0.972407 0.0323101 0.0 
1.06721 -0.0143575 0.0 
0.959463 0.03765 0.0 
1.06697 -0.00716392 0.0 
0.460787 -0.00735789 0.0 
0.0802714 0.00834533 0.0 
0.0686734 0.0117059 0.0 
0.269816 -0.00145191 0.0 
0.999839 0.0120287 0.0 
0.0826484 0.00144944 0.0 
1.05995 -0.00177411 0.0 
1.1595 -0.043183 0.0 
1.0683 -0.00483214 0.0 
1 0 0.0 
0.999846 0.0156128 0.0 
1.06624 0.000982778 0.0 
0.979304 0.0316756 0.0 
0.0982982 0.00794775 0.0 
1.05972 0.00524798 0.0 
0.0773436 -0.000573579 0.0 
1.05696 0.0128708 0.0 
0.920511 0.0278592 0.0 
1.04338 0.000432138 0.0 
0.957555 0.0580673 0.0 
1.00003 0.0208642 0.0 
1.19576 -0.110399 0.0 
0.65069 -0.00945947 0.0 
1.03524 -0.0312994 0.0 
1.04144 -0.0368098 0.0 
1.06799 -0.0449953 0.0 
1.05647 0.0101915 0.0 
1.06778 -0.0126999 0.0 
1.19167 0.0237265 0.0 
1.04285 0.014392 0.0 
1.24809 0.0816907 0.0 
1.03557 0.0307921 0.0 
1.00005 0.0166493 0.0 
1.18251 0.107013 0.0 
1.06519 -0.0195503 0.0 
0.9713 -0.0457719 0.0 
0.947986 0.0739413 0.0 
0.944399 0.0371447 0.0 
1.01441 0.0410154 0.0 
1.13789 -0.000869989 0.0 
0.929083 0.0325067 0.0 
1.00537 -0.00642285 0.0 
1.0691 0 0.0 
1.06398 -0.00336178 0.0 
0.934029 0.0542383 0.0 
1.13962 -0.163915 0.0 
0.935858 0.160503 0.0 
1.10261 -0.19509 0.0 
0.952624 -0.0202398 0.0 
1.08775 0.251231 0.0 
0.983489 0.0270546 0.0 
1.08823 0.104791 0.0 
0.786946 0.101667 0.0 
1.17641 0.107354 0.0 
0.454142 -0.00242255 0.0 
1.07528 0.186818 0.0 
1.00418 0.0208703 0.0 
1.05672 0.0157529 0.0 
1.04324 0.00910375 0.0 
1.04752 -0.000691349 0.0 
1.04616 0.000429579 0.0 
0.0608546 0.00957494 0.0 
1.04231 0.00239053 0.0 
-0.072793 0.0235545 0.0 
1.04285 -0.0337674 0.0 
1.00429 0.0344723 0.0 
1.04479 0.0097443 0.0 
1 0 0.0 
0.983468 0.0258954 0.0 
1.19414 0.0971058 0.0 
0.737921 -0.0331277 0.0 
0.999697 0.0150615 0.0 
0.992084 0.0385329 0.0 
1.04998 0.0105144 0.0 
1.0549 0.00556288 0.0 
0.940044 0.189208 0.0 
0.778866 0.130745 0.0 
1.00448 0.0179174 0.0 
1.14361 0.127135 0.0 
0.999976 0.243594 0.0 
0.999202 0.0117374 0.0 
0.986127 0.0288307 0.0 
1.0512 0.00141858 0.0 
0.938102 0.124692 0.0 
0.144707 0.0209483 0.0 
1.0502 0.00358652 0.0 
0.173142 0.0989596 0.0 
1.05038 -0.000700231 0.0 
1.00219 -0.00838256 0.0 
1.01674 0.0462051 0.0 
1.11121 -0.0392004 0.0 
1.04702 0.00254813 0.0 
0.957227 -0.00639475 0.0 
0.335568 0.0138515 0.0 
1.06382 -0.0229218 0.0 
0.946782 -0.00159364 0.0 
0.999906 0.0147534 0.0 
1.0613 -0.0278816 0.0 
0.942015 0.0656392 0.0 
1.19816 -0.0458211 0.0 
0.231857 -0.00266191 0.0 
0.581877 -0.0129925 0.0 
0.941297 -0.00477313 0.0 
0.964665 0.272623 0.0 
0.250673 0.047929 0.0 
0.996832 0.316184 0.0 
0.920892 -0.00193156 0.0 
1.07942 -0.043276 0.0 
0.685127 0.0042792 0.0 
0.356661 0.11633 0.0 
1.10376 0.0704685 0.0 
0.998786 0.011856 0.0 
0.536779 0.0045937 0.0 
0.132919 0.0455893 0.0 
0.91456 -0.0435256 0.0 
0.735397 -0.0194497 0.0 
1.03234 0.0469814 0.0 
0.998836 0.0114677 0.0 
1.0264 -0.0981212 0.0 
1.11412 -0.0347852 0.0 
1.17703 0.0258732 0.0 
0.0804917 0.00137622 0.0 
0.936456 -0.0577742 0.0 
1.03485 0.0439316 0.0 
1.06793 -0.00831725 0.0 
0.938269 -0.00916189 0.0 
0.0695768 0.00772119 0.0 
0.998872 0.0123768 0.0 
1.17552 0.0305439 0.0 
1.05961 -0.0270969 0.0 
0.963967 0.216326 0.0 
1.05322 0.0171682 0.0 
1.06957 7.61448e-05 0.0 
1.06972 0.00491685 0.0 
0.954714 0.0374206 0.0 
1.06162 -0.0248601 0.0 
0.99901 0.0135372 0.0 
0.952415 0.00688982 0.0 
1.13794 -0.0338216 0.0 
1.05615 0.0202061 0.0 
0.989454 0.00710754 0.0 
0.953595 0.0151515 0.0 
0.999053 0.0137171 0.0 
1.05937 0.00492963 0.0 
1.0418 -0.00524276 0.0 
1.06139 -0.0220811 0.0 
0.990618 0.0087379 0.0 
1.02275 0.0473752 0.0 
0.998929 0.0130116 0.0 
1.04483 -0.0266556 0.0 
1.06711 0.0193328 0.0 
0.060951 0.0191586 0.0 
0.0513356 0.012015 0.0 
1.07021 0.0152793 0.0 
0.905418 -0.0565653 0.0 
0.888058 -0.0480261 0.0 
0.878063 0.120868 0.0 
0.999513 0.0136381 0.0 
0.998935 0.0136461 0.0 
0.963008 -0.013353 0.0 
0.965153 -0.00215647 0.0 
1.03488 0.0272621 0.0 
0.96392 0.235209 0.0 
1.06769 0.152493 0.0 
1.03053 -0.0444114 0.0 
0.0671088 0.000776414 0.0 
1.16426 0.0254007 0.0 
1.10306 0.146431 0.0 
0.998783 0.0131804 0.0 
1.01664 0.0370055 0.0 
1.11583 -0.0081323 0.0 
0.982941 0.0207336 0.0 
0.934695 0.0463569 0.0 
1.03046 -0.0293378 0.0 
0.97353 0.0372032 0.0 
0.941444 0.10906 0.0 
0.934372 0.058902 0.0 
0.780497 -0.0307149 0.0 
0.96304 0.0069312 0.0 
0.787992 -0.0482132 0.0 
1.00115 0.0177734 0.0 
1.03202 0.0422975 0.0 
0.954014 -0.0103846 0.0 
0.961741 -0.00120212 0.0 
0.922824 0.0341319 0.0 
1.10077 0.249648 0.0 
0.972477 0.00588401 0.0 
0.941779 0.29213 0.0 
0.945596 0.0326663 0.0 
0.975383 0.226751 0.0 
0.849354 0.286238 0.0 
0.99526 0.00731681 0.0 
1.0007 0 0.0 
0.998869 0.0118673 0.0 
0.977402 0.00134832 0.0 
0.892392 0.154423 0.0 
0.131602 0.00885627 0.0 
1.01103 0.0426598 0.0 
0.980883 0.00694469 0.0 
0.999438 0.0122598 0.0 
0.915867 -0.071985 0.0 
0.91684 0.0329317 0.0 
1.1961 -0.0344656 0.0 
0.998771 0.0121267 0.0 
0.95248 0.0736514 0.0 
0.721548 -0.0661526 0.0 
1.03339 -0.0233391 0.0 
0.936434 0.0636416 0.0 
0.995394 0.0159141 0.0 
0.944628 0.0274203 0.0 
0.991206 0.0197506 0.0 
0.0799748 0.0130897 0.0 
0.714134 -0.0571592 0.0 
1.04478 -0.002403 0.0 
1.15926 0.0831375 0.0 
1.13575 -0.0206902 0.0 
0.997746 0.0104666 0.0 
0.982371 0.0183431 0.0 
1.00322 0.202758 0.0 
1.11472 0.158662 0.0 
0.580719 0.095739 0.0 
0.951358 0.189405 0.0 
0.981748 0.0187126 0.0 
0.243459 -0.016972 0.0 
0.982759 0.021616 0.0 
0.997363 0.0124855 0.0 
1.00046 0.0192366 0.0 
0.18866 -0.015995 0.0 
0.151881 -0.00576376 0.0 
0.981995 0.0298511 0.0 
0.336213 0.0581716 0.0 
1.1931 0.092967 0.0 
1.01025 0.04217 0.0 
0.981169 0.032113 0.0 
0.99982 0.0191548 0.0 
0.978053 0.0110312 0.0 
0.930531 0.0687111 0.0 
0.976741 0.025557 0.0 
0.852125 0.285357 0.0 
0.455901 -0.0252926 0.0 
0.176519 -0.00306147 0.0 
0.968355 0.0133325 0.0 
0.974938 0.0119443 0.0 
1.05462 0.205316 0.0 
0.254841 -0.0219746 0.0 
0.940071 0.0208805 0.0 
1.03369 -0.0389229 0.0 
0.983187 0.246224 0.0 
0.999361 0.0132834 0.0 
0.922777 0.0818647 0.0 
0.972605 0.0307934 0.0 
0.930385 0.143491 0.0 
0.957308 0.157082 0.0 
1.00899 0.255695 0.0 
0.675178 -0.0223941 0.0 
0.93745 -0.0525144 0.0 
1.11832 0.0598727 0.0 
0.467336 0.0938086 0.0 
0.926548 -0.0598243 0.0 
0.0696077 0.00752269 0.0 
0.89916 -0.012955 0.0 
0.746637 0.136341 0.0 
0.915211 -0.0665668 0.0 
0.922301 -0.0563035 0.0 
0.612954 0.165334 0.0 
1.04678 0.007614 0.0 
0.941134 0.173663 0.0 
0.879817 -0.00498574 0.0 
0.928437 -0.0538931 0.0 
1.04138 -0.00502578 0.0 
0.338773 0.0415844 0.0 
1.0379 -0.00838079 0.0 
0.866265 0.00736405 0.0 
0.896239 0.217674 0.0 
1.04998 -0.00103124 0.0 
0.906754 -0.088234 0.0 
0.919835 0.183421 0.0 
0.233811 -0.0223038 0.0 
1.13206 0.0626928 0.0 
1.03302 0.171167 0.0 
0.830695 0.380999 0.0 
1.10256 0.165816 0.0 
1.06368 0.26054 0.0 
0.919347 -0.0324429 0.0 
0.682129 -0.0792101 0.0 
0.977855 0.0331601 0.0 
0.518394 0.0621809 0.0 
0.918524 -0.0527896 0.0 
1.04827 0.0677064 0.0 
0.136104 0.0011126 0.0 
1.044 0.264229 0.0 
1.06023 0.0418789 0.0 
0.879232 0.105399 0.0 
1.00523 0.0213709 0.0 
0.892988 0.0669922 0.0 
0.0846206 0.0105889 0.0 
0.85351 0.0764791 0.0 
0.949629 0.0367781 0.0 
0.947519 0.00374661 0.0 
1.17435 -0.0395672 0.0 
0.763317 0.335606 0.0 
0.847865 0.0892127 0.0 
1.0295 0.072693 0.0 
1.08228 -0.0956312 0.0 
0.921169 -0.0470219 0.0 
1.03949 0.272484 0.0 
0.964891 0.0167329 0.0 
0.995981 0.0398658 0.0 
0.910501 0.0770689 0.0 
0.924832 0.112773 0.0 
0.910908 0.0353892 0.0 
1.00923 0.0268884 0.0 
0.920065 0.10607 0.0 
0.917575 0.221141 0.0 
0.999285 0.0123881 0.0 
1.09223 -0.0712163 0.0 
0.25 -0.0240458 0.0 
1.05315 0.251897 0.0 
0.96637 0.203405 0.0 
0.807308 0.151389 0.0 
0.827121 0.0382269 0.0 
0.886517 0.0298213 0.0 
1.04201 0.305713 0.0 
0.999679 0.0170141 0.0 
1.12538 0.141134 0.0 
1.03327 0.226998 0.0 
0.886413 -0.0484098 0.0 
0.923123 -0.00203796 0.0 
0.858568 0.15859 0.0 
0.911178 0.0205982 0.0 
0.885386 0.0148136 0.0 
0.932447 -0.0462162 0.0 
0.93435 0.207562 0.0 
0.995883 0.0299433 0.0 
0.999676 0.0145318 0.0 
0.062446 0.0128452 0.0 
0.0704914 0.00751616 0.0 
0.913135 0.0277184 0.0 
0.525416 0.153704 0.0 
1.03928 -0.0068517 0.0 
0.921814 -0.0164905 0.0 
0.978103 -0.00113799 0.0 
0.902855 0.0765411 0.0 
0.842021 0.00668632 0.0 
1.08224 -0.0676077 0.0 
0.955233 0.00784559 0.0 
0.975642 0.00894977 0.0 
1.08419 0.26841 0.0 
0.168927 -0.00833863 0.0 
0.930657 0.300562 0.0 
0.973129 0.00248529 0.0 
0.989293 0.0538465 0.0 
1.06902 -0.229503 0.0 
0.969117 0.0045324 0.0 
0.961876 0.0124183 0.0 
0.997767 0.0130328 0.0 
1.03832 -0.00813392 0.0 
0.794837 0.109096 0.0 
0.90469 0.0183404 0.0 
0.990982 0.00525185 0.0 
1.02861 -0.182944 0.0 
0.995267 0.0152005 0.0 
0.935697 0.0240311 0.0 
0.809018 0.168528 0.0 
0.950204 -0.00863533 0.0 
0.998149 0.00995327 0.0 
0.93895 0.00460167 0.0 
0.188323 0.128499 0.0 
0.944051 -0.00854083 0.0 
1.06585 -0.00967215 0.0 
0.953993 0.28906 0.0 
0.0580515 0.00296943 0.0 
1.10136 0.255794 0.0 
0.988071 0.0147064 0.0 
0.873045 -0.110401 0.0 
0.96901 0.00169802 0.0 
0.959794 0.00900852 0.0 
0.960044 0.00440502 0.0 
0.542985 0.13482 0.0 
0.96208 0.00172149 0.0 
0.956195 -0.0137205 0.0 
0.650824 0.184347 0.0 
1.03498 -0.011955 0.0 
1.0355 0.0446901 0.0 
0.996366 0.266436 0.0 
0.981202 0.020624 0.0 
0.975691 0.0288257 0.0 
0.964837 0.00379637 0.0 
0.89369 0.0128649 0.0 
0.959142 -0.0180178 0.0 
0.111777 0.00106934 0.0 
0.968872 -0.000367213 0.0 
1.06134 0.0170454 0.0 
0.876432 0.16818 0.0 
0.996533 0.011849 0.0 
1.06714 0.0279758 0.0 
1.05845 0.0953512 0.0 
1.10258 -0.0713548 0.0 
1.09746 0.105579 0.0 
0.976669 -0.0031026 0.0 
0.877077 0.183153 0.0 
0.996709 0.0142261 0.0 
0.997 0.0109339 0.0 
0.889937 -0.0412881 0.0 
0.978904 0.0255876 0.0 
1.16412 -0.227266 0.0 
0.645964 0.0174368 0.0 
0.942253 0.041482 0.0 
1.01744 0.303079 0.0 
0.907879 0.353517 0.0 
0.839334 0.132186 0.0 
1.16105 0.0772886 0.0 
0.153791 0.134006 0.0 
1.01802 0.290085 0.0 
1.06611 0.266467 0.0 
1.04006 -0.00526148 0.0 
0.939116 0.0942367 0.0 
0.0458422 0.00665027 0.0 
1.17645 0.148768 0.0 
0.978037 0.0316744 0.0 
0.910298 0.122117 0.0 
1.12655 0.220684 0.0 
0.851689 0.124362 0.0 
-0.0430422 -0.0178521 0.0 
0.97912 0.0298018 0.0 
0.925393 0.0736005 0.0 
0.743424 0.140798 0.0 
0.979944 0.026544 0.0 
0.912078 0.150242 0.0 
0.995948 0.0123183 0.0 
0.903422 0.101501 0.0 
0.97944 0.0277151 0.0 
0.854228 0.055627 0.0 
0.83128 0.0224563 0.0 
0.904544 0.164326 0.0 
0.998815 0.0111605 0.0 
0.969083 -0.00483777 0.0 
0.980398 0.0248861 0.0 
0.999198 0.017302 0.0 
0.96295 -0.00486857 0.0 
0.961933 -0.00853985 0.0 
0.966393 -0.00432521 0.0 
0.938427 -0.0415967 0.0 
0.926156 0.0580664 0.0 
0.926783 0.0880981 0.0 
1.04237 -0.000699481 0.0 
0.98998 0.0317536 0.0 
1.06595 0.0290749 0.0 
0.999297 0.0142136 0.0 
1.07927 -0.00680458 0.0 
1.00593 0.0797688 0.0 
0.949935 0.0131634 0.0 
0.977167 0.026899 0.0 
1.05022 -0.161264 0.0 
1.10111 0.243809 0.0 
1.12472 0.232083 0.0 
0.933496 -0.0323262 0.0 
0.999188 0.0137479 0.0 
0.951425 0.0108154 0.0 
0.996452 0.0133854 0.0 
0.979674 0.00522407 0.0 
1.05665 0.0102194 0.0 
1.04907 -0.171973 0.0 
0.065027 0.00302175 0.0 