<VTKFile type="UnstructuredGrid" version="0.1" byte_order="LittleEndian">
  <UnstructuredGrid>
    <Piece NumberOfPoints="9712" NumberOfCells="19403">
      <Points>
        <DataArray type = "Float64" NumberOfComponents="3" format="ascii">
-5 -7 0.0 
15.5 -7 0.0 
15.5 7 0.0 
-5 7 0.0 
-1.6546 1.77742 0.0 
-2.13867 1.86504 0.0 
-1.83467 1.79143 0.0 
1.47969 -2.21179 0.0 
1.36003 -2.38618 0.0 
1.4346 -2.45048 0.0 
-2.04214 1.94165 0.0 
-0.20425 1.17338 0.0 
-2.07648 1.81911 0.0 
-2.00827 1.89081 0.0 
-2.05492 1.98872 0.0 
0.192693 0.536219 0.0 
0.154285 1.75648 0.0 
1.1379 -1.62057 0.0 
-2.11226 1.96977 0.0 
-1.74119 1.75327 0.0 
1.14499 -1.58184 0.0 
-1.94373 2.37229 0.0 
1.50619 -0.664239 0.0 
1.99658 -1.76705 0.0 
1.7229 -1.18344 0.0 
-1.97759 2.52091 0.0 
-0.768046 0.387136 0.0 
1.32657 -1.43969 0.0 
1.90142 0.24821 0.0 
-0.93264 1.51038 0.0 
1.09557 0.967223 0.0 
0.627111 0.757352 0.0 
-2.05707 2.31394 0.0 
1.34027 -2.45136 0.0 
-0.725097 0.397516 0.0 
-0.666094 2.30428 0.0 
-0.73829 -0.279965 0.0 
1.73336 -1.08822 0.0 
1.88466 -1.24421 0.0 
1.50539 -1.23752 0.0 
1.65978 -1.30759 0.0 
-0.0409718 0.542603 0.0 
1.6005 -1.1227 0.0 
1.78439 -0.941488 0.0 
1.86015 -1.54236 0.0 
1.49308 -1.40058 0.0 
2.34892 -1.47149 0.0 
2.13832 -1.3246 0.0 
1.73061 0.751302 0.0 
-0.580328 0.526903 0.0 
1.51013 -2.1595 0.0 
-1.65424 3.45779 0.0 
-1.51397 2.46352 0.0 
1.42773 -2.17867 0.0 
0.304353 0.497878 0.0 
2.24628 0.228293 0.0 
1.51258 -2.27933 0.0 
-1.60346 3.44299 0.0 
-1.71408 2.36227 0.0 
2.17421 0.530405 0.0 
2.42 0.316451 0.0 
-1.63642 3.31911 0.0 
2.53942 -0.995036 0.0 
0.750003 0.810439 0.0 
2.04736 0.40918 0.0 
1.19615 -1.50641 0.0 
2.13474 0.494063 0.0 
0.547924 0.306722 0.0 
-0.2059 0.361394 0.0 
2.2127 0.547693 0.0 
1.41442 -0.597105 0.0 
1.52233 -1.46252 0.0 
-1.84114 2.53924 0.0 
-5 -2.53894 0.0 
2.32127 0.371156 0.0 
-1.69186 3.33379 0.0 
-0.964779 0.566136 0.0 
-1.81311 2.48387 0.0 
-1.78557 3.38304 0.0 
1.48278 0.914136 0.0 
2.51531 -1.89689 0.0 
1.20982 -0.330514 0.0 
0.408434 0.319657 0.0 
0.95023 0.60993 0.0 
-0.752349 0.440796 0.0 
-0.998248 0.564019 0.0 
-1.73165 3.36299 0.0 
1.24353 -1.49063 0.0 
0.942095 0.817189 0.0 
-1.77816 2.47096 0.0 
2.48183 -1.95479 0.0 
1.33574 -1.77854 0.0 
0.823335 1.12085 0.0 
-0.36308 0.598468 0.0 
0.745466 0.783414 0.0 
-1.88344 2.8521 0.0 
-1.79794 3.52221 0.0 
3.0087 0.272815 0.0 
-1.81486 2.66014 0.0 
0.375911 -0.403668 0.0 
-0.68323 0.487288 0.0 
-0.34187 -0.274923 0.0 
-0.293875 -0.201368 0.0 
1.61018 -1.767 0.0 
-0.448275 -0.347267 0.0 
-1.08687 0.352015 0.0 
1.29257 -1.76345 0.0 
1.67658 -1.49551 0.0 
1.19193 0.533009 0.0 
1.21582 -1.91654 0.0 
-0.36438 -0.346225 0.0 
-0.92534 0.330346 0.0 
2.3836 0.287756 0.0 
1.68841 0.639887 0.0 
1.59001 -1.89458 0.0 
1.14818 -1.92143 0.0 
1.28996 -2.19426 0.0 
1.37603 -1.8763 0.0 
1.23834 -2.09141 0.0 
1.11702 -2.06287 0.0 
0.691829 0.463808 0.0 
1.46523 -2.03459 0.0 
-0.123547 0.424486 0.0 
-1.3311 2.12174 0.0 
1.08169 -1.90074 0.0 
1.87975 -2.15971 0.0 
1.10131 -1.78593 0.0 
1.13722 0.534683 0.0 
1.42465 -1.59031 0.0 
-1.45435 2.47344 0.0 
1.41998 -1.98207 0.0 
0.463917 1.8787 0.0 
-1.72896 2.89571 0.0 
1.12419 -1.84975 0.0 
1.59054 -1.20634 0.0 
0.46124 0.621002 0.0 
0.806438 -1.00204 0.0 
2.1804 0.349761 0.0 
2.21142 -1.6418 0.0 
1.10152 -0.274558 0.0 
2.23388 0.387302 0.0 
0.137769 0.567007 0.0 
1.88736 0.267391 0.0 
1.26821 -1.94267 0.0 
0.21033 -0.605707 0.0 
2.61094 -1.50046 0.0 
0.819837 0.743337 0.0 
-1.4303 2.07799 0.0 
1.82013 0.322126 0.0 
-1.47649 2.2099 0.0 
1.15745 -0.274223 0.0 
-1.81198 2.24994 0.0 
2.34337 -1.67775 0.0 
-1.13329 1.37877 0.0 
-0.828215 1.05292 0.0 
2.46752 -1.53452 0.0 
-1.69915 2.18529 0.0 
-0.404416 -0.286271 0.0 
-1.23501 1.31766 0.0 
2.11757 -1.50659 0.0 
-1.08535 1.28274 0.0 
2.58548 -1.70783 0.0 
0.24729 -0.572345 0.0 
-1.66963 2.25319 0.0 
1.58322 -1.62308 0.0 
-0.367923 -0.306026 0.0 
0.391521 1.44485 0.0 
1.88977 -2.46319 0.0 
1.5943 -1.53613 0.0 
-0.357143 -0.23651 0.0 
0.82621 0.80563 0.0 
-1.59261 2.31884 0.0 
-0.47244 -0.307516 0.0 
-0.40334 -0.326688 0.0 
-2.00063 2.11543 0.0 
1.55514 -1.95078 0.0 
-1.40431 2.26352 0.0 
-0.0265928 0.573714 0.0 
1.17093 1.10579 0.0 
-1.77907 2.22111 0.0 
0.682788 0.329642 0.0 
-0.54475 2.15572 0.0 
-0.288592 0.289433 0.0 
-1.43199 2.16349 0.0 
-1.45029 2.25134 0.0 
1.5535 -1.79992 0.0 
-1.06406 1.08381 0.0 
1.72954 1.44966 0.0 
0.582806 0.515814 0.0 
0.582876 -0.679913 0.0 
1.32351 -0.355916 0.0 
-0.47505 0.577092 0.0 
-0.371167 0.227715 0.0 
1.52235 -1.8529 0.0 
-0.429822 -0.244811 0.0 
-0.53237 -0.24648 0.0 
-0.393983 -0.210364 0.0 
0.652895 0.317361 0.0 
1.55812 -1.70765 0.0 
1.63021 0.325622 0.0 
0.442731 0.358729 0.0 
1.22925 -1.85192 0.0 
1.43517 -1.79082 0.0 
1.39317 -1.6984 0.0 
1.62965 0.295952 0.0 
0.905462 0.793465 0.0 
1.04036 -1.64811 0.0 
2.1131 -1.72466 0.0 
-0.743911 0.369492 0.0 
1.14427 -1.99314 0.0 
1.26033 -2.0209 0.0 
-1.70955 2.07308 0.0 
0.910023 -1.62976 0.0 
-0.313059 -0.0954838 0.0 
-1.77334 2.3988 0.0 
-0.311958 -0.24042 0.0 
2.53315 0.325608 0.0 
-0.273728 -0.226719 0.0 
-0.646401 0.379627 0.0 
1.52426 0.616074 0.0 
2.21703 -1.79499 0.0 
2.71108 0.312216 0.0 
0.759924 1.093 0.0 
-1.69271 2.12368 0.0 
0.255794 0.540969 0.0 
0.0534699 0.562158 0.0 
-1.5679 2.22408 0.0 
-1.66906 2.45165 0.0 
-1.51895 2.09449 0.0 
2.16948 0.408238 0.0 
-0.818806 0.680638 0.0 
-0.826868 0.642087 0.0 
0.519855 0.276992 0.0 
-0.716682 1.18602 0.0 
-0.649974 -0.148775 0.0 
0.457368 0.256619 0.0 
0.517407 0.248194 0.0 
0.327129 0.39802 0.0 
0.533249 -0.878832 0.0 
-0.870735 0.634904 0.0 
1.19219 1.07557 0.0 
2.35922 0.366028 0.0 
-1.66911 3.66723 0.0 
-0.857603 1.54934 0.0 
-0.379189 2.30131 0.0 
-0.941007 1.36523 0.0 
-1.58662 2.49682 0.0 
-0.545297 0.352587 0.0 
0.327944 -0.744683 0.0 
-0.312756 0.524741 0.0 
-0.107843 0.506233 0.0 
2.13378 -2.36584 0.0 
1.52689 0.686953 0.0 
-0.119983 0.327909 0.0 
1.02161 -1.53072 0.0 
1.51507 0.39695 0.0 
-0.674484 1.02605 0.0 
-0.564724 -0.148435 0.0 
0.409388 0.290913 0.0 
0.252349 0.30842 0.0 
-1.09282 1.45998 0.0 
1.45674 -1.54484 0.0 
-0.266777 0.782169 0.0 
0.91327 -0.874389 0.0 
1.01208 1.13309 0.0 
-0.897136 1.35063 0.0 
-0.846484 0.489353 0.0 
1.47563 0.663768 0.0 
-1.22282 2.05021 0.0 
0.348906 0.416714 0.0 
1.41913 0.964648 0.0 
0.933289 -0.839038 0.0 
-1.85066 1.40221 0.0 
0.142477 1.99435 0.0 
-0.717809 0.341194 0.0 
-2.21177 1.41584 0.0 
0.396571 0.350929 0.0 
1.25171 -1.60721 0.0 
0.736798 0.393502 0.0 
-0.661427 0.19031 0.0 
2.18751 -2.32769 0.0 
-1.00908 1.6747 0.0 
2.21416 -2.07269 0.0 
-0.779194 0.642011 0.0 
-1.02312 1.3939 0.0 
2.08809 -2.24876 0.0 
-5 -4.48794 0.0 
1.61792 -1.46215 0.0 
-0.974627 1.38947 0.0 
1.81166 -2.48446 0.0 
-1.03635 1.47474 0.0 
0.869004 -1.74424 0.0 
0.956579 -1.78598 0.0 
1.07495 0.540689 0.0 
-1.08005 1.37763 0.0 
0.914755 -0.803058 0.0 
0.611759 -0.305322 0.0 
1.70043 -1.41356 0.0 
0.75708 -0.631542 0.0 
1.21215 1.01979 0.0 
-0.586902 0.440014 0.0 
1.9251 -2.56336 0.0 
-1.58261 1.91091 0.0 
-0.746541 1.26087 0.0 
-1.49915 1.13657 0.0 
-1.46675 0.971536 0.0 
-1.05881 0.930935 0.0 
0.71826 0.415078 0.0 
-0.701697 0.526982 0.0 
-1.56194 2.05157 0.0 
1.15988 0.991244 0.0 
1.38676 0.949615 0.0 
-1.61697 2.02689 0.0 
1.13748 -0.357331 0.0 
-1.8456 2.04561 0.0 
0.253686 -0.756334 0.0 
-1.53603 1.86509 0.0 
-1.43465 0.924137 0.0 
-1.00273 1.27416 0.0 
-1.03063 1.5132 0.0 
-1.32483 1.94769 0.0 
-0.965552 1.61445 0.0 
-0.239859 -0.245939 0.0 
-5 3.01776 0.0 
-5 -0.248741 0.0 
0.517491 1.87079 0.0 
-1.18776 1.8875 0.0 
2.27458 0.36201 0.0 
1.9794 0.331487 0.0 
0.503086 0.510306 0.0 
1.26387 -0.370702 0.0 
1.24483 0.550197 0.0 
1.12871 0.979556 0.0 
-1.48659 1.83259 0.0 
1.0672 0.958366 0.0 
-1.16856 1.61214 0.0 
-0.218637 -0.230696 0.0 
-5 1.81431 0.0 
1.37014 1.04658 0.0 
0.0950623 0.557621 0.0 
-1.23613 1.67303 0.0 
0.953731 -0.709843 0.0 
2.07568 -1.85385 0.0 
2.10836 -1.82014 0.0 
-0.994952 1.33552 0.0 
-1.86986 1.52312 0.0 
0.515812 0.447542 0.0 
0.842446 0.992035 0.0 
-1.42353 1.8223 0.0 
2.091 0.354014 0.0 
-0.937663 0.401428 0.0 
-1.69305 1.41997 0.0 
-1.82465 1.55127 0.0 
2.15192 0.384657 0.0 
-1.17972 1.37998 0.0 
-0.718866 -0.0130647 0.0 
-0.927867 0.290435 0.0 
1.56509 0.300406 0.0 
-5 -3.04052 0.0 
9.98027 -7 0.0 
0.176009 0.694641 0.0 
0.597997 -0.559941 0.0 
-0.546583 0.4849 0.0 
0.602022 -0.657834 0.0 
2.17737 0.379672 0.0 
1.89809 0.287017 0.0 
-1.58883 1.35796 0.0 
-1.2284 1.37063 0.0 
-1.43937 1.35342 0.0 
-1.59664 1.47263 0.0 
0.577431 -0.368705 0.0 
1.5263 -1.51093 0.0 
0.479666 0.796509 0.0 
0.894995 1.01463 0.0 
2.22312 0.363016 0.0 
-0.320562 0.726481 0.0 
-1.30188 2.41386 0.0 
0.43802 0.434693 0.0 
-0.761697 0.762024 0.0 
1.45688 -1.49591 0.0 
-0.65072 0.676835 0.0 
1.6097 -1.41509 0.0 
2.25768 0.399237 0.0 
1.85518 0.299709 0.0 
2.14618 0.290757 0.0 
2.25222 0.371677 0.0 
-1.93063 2.91367 0.0 
1.52717 0.319618 0.0 
1.67964 -1.62237 0.0 
1.35962 -0.439169 0.0 
1.63007 -1.54335 0.0 
-5 -0.764504 0.0 
-1.61377 2.62271 0.0 
1.73865 -1.57725 0.0 
-0.908306 1.23669 0.0 
1.60766 0.330292 0.0 
1.82509 -1.63054 0.0 
1.90521 0.312457 0.0 
1.98719 -1.6488 0.0 
-0.528791 0.39225 0.0 
1.94978 -2.39003 0.0 
-0.472559 0.718465 0.0 
-1.28058 2.26572 0.0 
0.881581 -0.556282 0.0 
2.26369 0.42542 0.0 
0.917309 -1.69962 0.0 
0.853954 -1.60945 0.0 
1.30086 -0.404316 0.0 
1.99565 -2.46852 0.0 
1.49445 -1.47573 0.0 
1.68285 0.863315 0.0 
2.03074 -2.37549 0.0 
2.52279 -0.506167 0.0 
2.56049 -1.76899 0.0 
-1.52889 2.56597 0.0 
2.81136 -0.570221 0.0 
1.3688 -1.46095 0.0 
1.29524 -0.373946 0.0 
-0.350504 0.671928 0.0 
-0.590282 0.564035 0.0 
-0.054366 2.16706 0.0 
1.50819 1.22548 0.0 
-0.548222 0.453941 0.0 
2.19936 -2.5207 0.0 
12.2704 -7 0.0 
1.6811 -1.36761 0.0 
-0.449261 0.559535 0.0 
0.537017 -0.527614 0.0 
-0.00733391 0.553304 0.0 
0.494109 -0.356396 0.0 
-0.7939 0.0827441 0.0 
0.39888 0.467333 0.0 
-1.04288 1.34095 0.0 
0.605019 1.02824 0.0 
0.847559 0.374727 0.0 
1.00336 0.618307 0.0 
2.1955 0.399186 0.0 
0.656973 0.401158 0.0 
-0.998431 2.73564 0.0 
[...]
<PointData>
  <DataArray type = "Float64" Name="VitesseP1" NumberOfComponents="3" format="ascii">
1 0 0.0 
1.07268 0 0.0 
1.02246 0 0.0 
1 0 0.0 
0.994522 0.0159194 0.0 
0.996858 0.0112297 0.0 
0.995417 0.0137181 0.0 
1.03811 -0.00514299 0.0 
1.0392 -0.00783645 0.0 
1.04313 -0.00743391 0.0 
0.997707 0.0121673 0.0 
0.986029 0.0725699 0.0 
0.996548 0.0115613 0.0 
0.996758 0.0123574 0.0 
0.998876 0.0121723 0.0 
0.992224 0.217535 0.0 
1.01871 0.0541568 0.0 
1.05117 -0.02553 0.0 
0.998803 0.0115879 0.0 
0.994946 0.0146465 0.0 
1.055 -0.0263694 0.0 
0.99878 0.0135287 0.0 
1.15916 -0.0229476 0.0 
1.04831 0.0114388 0.0 
1.06096 -0.000479747 0.0 
0.998736 0.0131147 0.0 
0.944395 0.00871035 0.0 
1.06126 -0.0212632 0.0 
0.0674196 0.00770741 0.0 
0.988577 0.0315333 0.0 
1.14023 0.0653219 0.0 
1.10938 0.140687 0.0 
0.998782 0.0125243 0.0 
1.03038 -0.0205211 0.0 
0.941241 0.0122894 0.0 
1.00529 0.0307389 0.0 
0.936912 -0.0512755 0.0 
1.08193 0.000138694 0.0 
1.05343 0.0099165 0.0 
1.0524 -0.0143667 0.0 
1.05487 -0.00403297 0.0 
0.926782 0.151284 0.0 
1.07286 -0.00944551 0.0 
1.12386 0.00434843 0.0 
1.06568 0.00707699 0.0 
1.06152 -0.0129839 0.0 
1.05794 0.0333494 0.0 
1.05334 0.0246883 0.0 
1.19305 0.0204494 0.0 
0.939422 0.035586 0.0 
1.03757 -0.00481789 0.0 
1.00248 0.01254 0.0 
0.999702 0.017722 0.0 
1.0371 -0.00662112 0.0 
1.03774 0.242386 0.0 
0.0619913 0.0286751 0.0 
1.03881 -0.00422921 0.0 
1.0027 0.0129439 0.0 
0.998995 0.0158018 0.0 
1.16871 -0.00950486 0.0 
0.230812 0.00310544 0.0 
1.00233 0.013203 0.0 
1.08769 0.0612203 0.0 
1.12195 0.118904 0.0 
0.580488 -0.00800132 0.0 
1.05941 -0.0261886 0.0 
1.08723 -0.00701719 0.0 
0.558866 0.134488 0.0 
0.862665 0.0852689 0.0 
1.18642 -0.0140414 0.0 
1.20062 -0.0347331 0.0 
1.06472 -0.0107543 0.0 
0.998942 0.0142647 0.0 
1 0 0.0 
0.370588 -0.0103936 0.0 
1.0021 0.0127766 0.0 
0.968029 0.010627 0.0 
0.998966 0.0146201 0.0 
1.00174 0.0119511 0.0 
1.16912 0.0311812 0.0 
1.03606 0.0198642 0.0 
0.759157 -0.0398699 0.0 
0.949674 0.262564 0.0 
1.17267 0.112043 0.0 
0.946039 0.0142396 0.0 
0.969844 0.00892804 0.0 
1.00202 0.0123834 0.0 
1.06058 -0.0243875 0.0 
1.1422 0.0949469 0.0 
0.99903 0.0149706 0.0 
1.04208 0.0243938 0.0 
1.04524 -0.0144881 0.0 
1.09496 0.0782462 0.0 
0.935377 0.0699224 0.0 
1.12437 0.123013 0.0 
0.999767 0.0130655 0.0 
1.00224 0.0111817 0.0 
0.108576 -0.166607 0.0 
0.999123 0.0142055 0.0 
1.1919 -0.234071 0.0 
0.943943 0.0229932 0.0 
0.918801 -0.0883445 0.0 
0.915735 -0.0744837 0.0 
1.04907 -0.00404804 0.0 
0.924294 -0.0782396 0.0 
0.967029 -0.00812626 0.0 
1.04519 -0.0163714 0.0 
1.06621 -0.00235541 0.0 
1.19618 0.0783408 0.0 
1.03821 -0.0161507 0.0 
0.920024 -0.0885752 0.0 
0.954696 -0.00361817 0.0 
0.157937 0.0154789 0.0 
1.19757 0.0261771 0.0 
1.04364 -0.00409276 0.0 
1.03678 -0.0179547 0.0 
1.03533 -0.0094451 0.0 
1.04228 -0.0116058 0.0 
1.03405 -0.0126262 0.0 
1.03188 -0.0171096 0.0 
1.16445 0.182334 0.0 
1.03744 -0.00696167 0.0 
0.877206 0.125762 0.0 
0.998979 0.0212086 0.0 
1.03611 -0.0203118 0.0 
1.03726 0.00472927 0.0 
1.0402 -0.022475 0.0 
1.1957 0.0862612 0.0 
1.06069 -0.0140056 0.0 
0.999948 0.0183535 0.0 
1.03822 -0.00888856 0.0 
1.02779 0.0476158 0.0 
1.00064 0.0141227 0.0 
1.03864 -0.0202697 0.0 
1.05657 -0.00918199 0.0 
1.08739 0.187976 0.0 
1.06797 -0.0722475 0.0 
0.242583 0.000591571 0.0 
1.05377 0.0220341 0.0 
0.458962 -0.0386244 0.0 
0.42392 -0.0129564 0.0 
0.977585 0.196019 0.0 
0.0731661 0.00441855 0.0 
1.03786 -0.0141147 0.0 
1.03062 -0.160185 0.0 
1.04509 0.0477949 0.0 
1.13858 0.118475 0.0 
0.998698 0.0198027 0.0 
0.0950313 0.00305362 0.0 
0.998854 0.0188816 0.0 
0.412444 -0.0167695 0.0 
0.998691 0.0148757 0.0 
1.04678 0.0261348 0.0 
0.985023 0.0247338 0.0 
0.973289 0.0344666 0.0 
1.05177 0.0371026 0.0 
0.998517 0.0161311 0.0 
0.92277 -0.0794866 0.0 
0.984044 0.0211361 0.0 
1.06333 0.0204668 0.0 
0.981447 0.0255742 0.0 
1.03305 0.031553 0.0 
1.04 -0.170667 0.0 
0.998797 0.0164293 0.0 
1.05931 -0.00623869 0.0 
0.920174 -0.0858542 0.0 
1.03295 0.0695997 0.0 
1.04217 -0.000324289 0.0 
1.06546 -0.00638277 0.0 
0.916494 -0.0816752 0.0 
1.13177 0.110452 0.0 
0.999102 0.0172236 0.0 
0.927623 -0.0726791 0.0 
0.922172 -0.0825495 0.0 
0.998575 0.0129119 0.0 
1.04069 -0.00497276 0.0 
0.999344 0.0197211 0.0 
0.938843 0.151218 0.0 
1.12747 0.0471899 0.0 
0.998632 0.0152344 0.0 
0.636856 0.110272 0.0 
1.00589 0.0348691 0.0 
0.863236 0.0452808 0.0 
0.998814 0.0196014 0.0 
0.999153 0.0191335 0.0 
1.04699 -0.00605199 0.0 
0.97381 0.0240342 0.0 
1.06872 -0.0359305 0.0 
1.14146 0.19822 0.0 
1.10865 -0.128127 0.0 
0.878294 -0.0289985 0.0 
0.93809 0.0518018 0.0 
0.874935 0.0162881 0.0 
1.04476 -0.00677979 0.0 
0.924057 -0.0730588 0.0 
0.933159 -0.0625361 0.0 
0.918838 -0.0742177 0.0 
0.583865 0.110625 0.0 
1.05235 -0.00664657 0.0 
0.104178 0.0110393 0.0 
1.03794 0.264277 0.0 
1.04073 -0.0169177 0.0 
1.04622 -0.010635 0.0 
1.05107 -0.0136491 0.0 
0.0819344 0.0128098 0.0 
1.14159 0.101708 0.0 
1.04621 -0.0283658 0.0 
1.04921 0.0164907 0.0 
0.941285 0.00854282 0.0 
1.03367 -0.0169788 0.0 
1.03503 -0.0130636 0.0 
0.998671 0.0160046 0.0 
1.04319 -0.0333795 0.0 
0.898769 -0.0655563 0.0 
0.998963 0.0151356 0.0 
0.909742 -0.0856972 0.0 
0.299084 -0.0188713 0.0 
0.887913 -0.0838808 0.0 
0.932484 0.0160382 0.0 
1.19762 0.03929 0.0 
1.04434 0.0192121 0.0 
0.368298 -0.0578038 0.0 
1.09466 0.0858988 0.0 
0.998477 0.0162119 0.0 
1.01895 0.222365 0.0 
0.951415 0.176877 0.0 
0.998792 0.0176803 0.0 
0.999232 0.0160914 0.0 
0.998671 0.0184972 0.0 
0.55628 -0.0118799 0.0 
0.967607 0.0250904 0.0 
0.965301 0.0225956 0.0 
0.415317 0.135698 0.0 
0.976265 0.0409315 0.0 
0.94027 -0.0443776 0.0 
0.302155 0.10153 0.0 
0.375768 0.184411 0.0 
1.0635 0.296164 0.0 
1.06899 -0.102175 0.0 
0.967065 0.0195209 0.0 
1.13509 0.0472819 0.0 
0.366821 -0.0088914 0.0 
1.00055 0.011866 0.0 
0.99017 0.0338705 0.0 
1.00943 0.035395 0.0 
0.983593 0.0311867 0.0 
0.999533 0.0168317 0.0 
0.918606 0.0212684 0.0 
1.05852 -0.130979 0.0 
0.918855 0.075498 0.0 
0.908605 0.131707 0.0 
1.04114 0.013852 0.0 
1.18859 0.0369859 0.0 
0.829789 0.116484 0.0 
1.05431 -0.032916 0.0 
0.587668 0.0181852 0.0 
0.975629 0.043518 0.0 
0.932664 -0.0502851 0.0 
0.702945 0.194445 0.0 
0.899608 0.33865 0.0 
0.987124 0.0264078 0.0 
1.06375 -0.0130241 0.0 
0.967125 0.086079 0.0 
1.11258 -0.0753512 0.0 
1.10868 0.0607516 0.0 
0.982961 0.0328331 0.0 
0.956159 0.0120721 0.0 
1.18968 0.0423023 0.0 
0.999073 0.023227 0.0 
1.0777 0.28313 0.0 
1.16241 0.0334457 0.0 
1.12298 -0.0762944 0.0 
0.994021 0.0102303 0.0 
1.01725 0.0464689 0.0 
0.937294 0.00743012 0.0 
0.997192 0.00855197 0.0 
1.01893 0.28366 0.0 
1.05553 -0.0212278 0.0 
1.00327 0.150168 0.0 
0.925035 -0.00663348 0.0 
1.03407 0.0291546 0.0 
0.992661 0.028921 0.0 
1.03502 0.0158033 0.0 
0.962712 0.0257744 0.0 
0.984837 0.0283952 0.0 
1.03333 0.00768484 0.0 
1 0 0.0 
1.06555 -0.00561261 0.0 
0.98455 0.0300421 0.0 
1.04103 -0.000319239 0.0 
0.987406 0.0281962 0.0 
1.03501 -0.0306096 0.0 
1.03643 -0.026931 0.0 
1.19292 0.0958406 0.0 
0.984643 0.0264213 0.0 
1.12863 -0.080905 0.0 
0.914565 -0.14613 0.0 
1.06384 -0.00132597 0.0 
1.12745 -0.11367 0.0 
1.14388 0.0493732 0.0 
0.931215 0.0272654 0.0 
1.03712 0.00321644 0.0 
0.995861 0.0173918 0.0 
0.979518 0.039317 0.0 
0.983954 0.0112307 0.0 
0.9955 0.0104947 0.0 
0.990083 0.0213462 0.0 
1.09154 0.166721 0.0 
0.948485 0.0245408 0.0 
0.998652 0.0178638 0.0 
1.1429 0.0568035 0.0 
1.16137 0.0371772 0.0 
0.998401 0.0171029 0.0 
0.9354 -0.0560987 0.0 
0.999046 0.0143792 0.0 
1.04273 -0.127827 0.0 
0.994947 0.0179857 0.0 
1.00026 0.0111516 0.0 
0.980568 0.0284565 0.0 
0.98866 0.0284448 0.0 
0.996479 0.021598 0.0 
0.991729 0.0303025 0.0 
0.882241 -0.105675 0.0 
1 0 0.0 
1 0 0.0 
1.0296 0.0469561 0.0 
0.995122 0.0242537 0.0 
0.316133 -0.00674979 0.0 
0.127502 0.00228234 0.0 
1.11703 0.215739 0.0 
0.965033 -0.0434857 0.0 
1.19969 0.0715963 0.0 
1.14166 0.0609176 0.0 
0.994371 0.0186945 0.0 
1.13884 0.0690274 0.0 
0.991691 0.0247608 0.0 
0.948498 -0.164103 0.0 
1 0 0.0 
1.15286 0.0318554 0.0 
0.961729 0.189437 0.0 
0.992645 0.023274 0.0 
1.14331 -0.0837623 0.0 
1.04374 0.0135065 0.0 
1.04472 0.015096 0.0 
0.982681 0.029129 0.0 
0.995299 0.0114836 0.0 
1.12886 0.231041 0.0 
1.11682 0.0892051 0.0 
0.994114 0.0197505 0.0 
0.22804 -0.00477134 0.0 
0.958377 0.00117243 0.0 
0.992031 0.0122778 0.0 
0.995225 0.0121989 0.0 
0.387228 -0.00885968 0.0 
0.98538 0.0233452 0.0 
0.948726 -0.0292785 0.0 
0.953474 -0.00682918 0.0 
0.0908688 -0.00546581 0.0 
1 0 0.0 
1.0596 0 0.0 
1.00774 0.165506 0.0 
1.11961 -0.145265 0.0 
0.931971 0.0357346 0.0 
1.11261 -0.129396 0.0 
0.363983 -0.00875094 0.0 
0.079726 0.00393025 0.0 
0.989559 0.0130047 0.0 
0.985522 0.0218598 0.0 
0.987339 0.0161478 0.0 
0.991585 0.0144445 0.0 
1.10937 -0.172851 0.0 
1.06511 -0.0100011 0.0 
1.07938 0.145902 0.0 
1.11954 0.082074 0.0 
0.304292 -0.0047167 0.0 
0.956671 0.0789658 0.0 
1.00046 0.020446 0.0 
1.11166 0.256138 0.0 
0.972266 0.032503 0.0 
1.06436 -0.0137859 0.0 
0.959282 0.0377928 0.0 
1.06358 -0.00644361 0.0 
0.501511 -0.01603 0.0 
0.0827805 0.00346594 0.0 
0.0909916 0.023241 0.0 
0.350456 -0.00877773 0.0 
0.999767 0.0124972 0.0 
0.0720383 0.000332313 0.0 
1.05984 -0.00179287 0.0 
1.16418 -0.0401187 0.0 
1.06547 -0.00456459 0.0 
1 0 0.0 
0.999648 0.0161419 0.0 
1.064 0.000975844 0.0 
0.978938 0.0320266 0.0 
0.10195 0.0073927 0.0 
1.05934 0.00497581 0.0 
0.0949631 0.00269767 0.0 
1.05674 0.0122011 0.0 
0.9203 0.0279345 0.0 
1.0374 0.00121702 0.0 
0.957335 0.0581463 0.0 
0.999821 0.021435 0.0 
1.19481 -0.108611 0.0 
0.690021 -0.0180572 0.0 
1.03896 -0.0306852 0.0 
1.04277 -0.0358309 0.0 
1.07329 -0.0424147 0.0 
1.0487 0.0097674 0.0 
1.0647 -0.0120954 0.0 
1.18203 0.0158341 0.0 
1.0369 0.0130197 0.0 
1.23356 0.0895691 0.0 
1.03433 0.026658 0.0 
0.999851 0.0171918 0.0 
1.15777 0.106934 0.0 
1.06247 -0.0188375 0.0 
0.978307 -0.0435451 0.0 
0.947744 0.07394 0.0 
0.944199 0.0372491 0.0 
1.01408 0.0426115 0.0 
1.12895 -0.00183067 0.0 
0.928871 0.0325884 0.0 
1.01219 -0.00320897 0.0 
1.05486 0 0.0 
1.06061 -0.00252911 0.0 
0.933816 0.0542785 0.0 
1.13927 -0.162913 0.0 
0.935648 0.160172 0.0 
1.10373 -0.19445 0.0 
0.952761 -0.0200227 0.0 
1.08785 0.250033 0.0 
0.983157 0.0274371 0.0 
1.08653 0.103611 0.0 
0.795149 0.100423 0.0 
1.1751 0.102877 0.0 
0.493009 -0.0128563 0.0 
1.07785 0.185125 0.0 
1.00394 0.021519 0.0 
1.05628 0.0148816 0.0 
1.0419 0.00810347 0.0 
1.04949 -0.00108178 0.0 
1.04728 -7.61011e-05 0.0 
0.129671 0.0146926 0.0 
1.04037 0.00157897 0.0 
0.0527441 0.0173515 0.0 
1.1046 -0.0486132 0.0 
1.00393 0.0352894 0.0 
1.04425 0.00875554 0.0 
1 0 0.0 
0.983148 0.0262729 0.0 
1.19329 0.0916026 0.0 
0.786376 -0.0444609 0.0 
0.999502 0.0155797 0.0 
0.991627 0.0390578 0.0 
1.05147 0.00978688 0.0 
1.05572 0.00515765 0.0 
0.939877 0.188795 0.0 
0.784465 0.129936 0.0 
1.00419 0.0185645 0.0 
1.14433 0.127652 0.0 
0.999943 0.242885 0.0 
0.999018 0.0121871 0.0 
0.986065 0.0290953 0.0 
1.0531 0.00106232 0.0 
0.937852 0.12448 0.0 
0.256344 0.00562266 0.0 
1.05211 0.00313791 0.0 
0.174951 0.099379 0.0 
1.05239 -0.000980589 0.0 
1.05135 -0.0177131 0.0 
1.01546 0.0477975 0.0 
1.14939 -0.0593153 0.0 
1.04856 0.00203158 0.0 
0.956978 -0.00622535 0.0 
0.371425 0.0106749 0.0 
1.06149 -0.022315 0.0 
0.946538 -0.00142782 0.0 
0.999704 0.0152757 0.0 
1.05899 -0.0271061 0.0 
0.941789 0.0656581 0.0 
1.19591 -0.0426184 0.0 
0.358273 -0.029798 0.0 
0.617455 -0.0211263 0.0 
0.941065 -0.00460523 0.0 
0.964689 0.272045 0.0 
0.252659 0.0478842 0.0 
0.997129 0.315605 0.0 
0.976064 -0.0109767 0.0 
1.07779 -0.0416672 0.0 
0.741149 -0.0067006 0.0 
0.358445 0.116369 0.0 
1.10036 0.0688498 0.0 
0.998635 0.0122807 0.0 
0.58357 -0.00856276 0.0 
0.233724 0.025983 0.0 
0.914816 -0.0434117 0.0 
0.779408 -0.0283909 0.0 
1.02899 0.0433013 0.0 
0.998727 0.0118591 0.0 
1.02616 -0.0976729 0.0 
1.11989 -0.0315459 0.0 
1.16836 0.0208852 0.0 
0.0859311 0.00349078 0.0 
0.936417 -0.0575914 0.0 
1.03321 0.0377538 0.0 
1.06455 -0.00766656 0.0 
0.938078 -0.00898884 0.0 
0.133374 -0.000863033 0.0 
0.998742 0.012793 0.0 
1.16769 0.0251618 0.0 
1.05803 -0.0264694 0.0 
0.963846 0.215787 0.0 
1.04961 0.011284 0.0 
1.06563 0.000546407 0.0 
1.06546 0.00525556 0.0 
0.954525 0.0375499 0.0 
1.05974 -0.0242633 0.0 
0.99886 0.0139853 0.0 
0.952201 0.0070533 0.0 
1.14358 -0.0303843 0.0 
1.05118 0.0209118 0.0 
0.9893 0.00736269 0.0 
0.953401 0.0153115 0.0 
0.998896 0.0141749 0.0 
1.0557 0.00587216 0.0 
1.04119 -0.00409669 0.0 
1.05992 -0.0215794 0.0 
0.990466 0.00901443 0.0 
1.01945 0.0430338 0.0 
0.998856 0.0134006 0.0 
1.04742 -0.0262459 0.0 
1.06174 0.0192647 0.0 
0.0786774 0.0239673 0.0 
0.0637311 0.00963836 0.0 
1.0651 0.0151139 0.0 
0.905639 -0.0564582 0.0 
0.895176 -0.0464674 0.0 
0.884576 0.119233 0.0 
0.999325 0.0141312 0.0 
0.998801 0.0140831 0.0 
0.962744 -0.0132137 0.0 
0.96495 -0.00198177 0.0 
1.03383 0.0228546 0.0 
0.963856 0.234657 0.0 
1.06696 0.151351 0.0 
1.02818 -0.0448874 0.0 
0.0846804 0.00873556 0.0 
1.15649 0.0217043 0.0 
1.08155 0.136867 0.0 
0.998668 0.0135933 0.0 
1.01492 0.0333045 0.0 
1.10825 -0.00767055 0.0 
0.982862 0.0209715 0.0 
0.934485 0.0464188 0.0 
1.03309 -0.0285655 0.0 
0.973388 0.0373898 0.0 
0.941187 0.108909 0.0 
0.934155 0.0589291 0.0 
0.829247 -0.0409987 0.0 
0.962859 0.00711251 0.0 
0.79489 -0.0472078 0.0 
1.00091 0.0183659 0.0 
1.02952 0.0434293 0.0 
0.953757 -0.010207 0.0 
0.961528 -0.00102927 0.0 
0.922614 0.0341994 0.0 
1.10166 0.248352 0.0 
0.972333 0.00608545 0.0 
0.943036 0.291588 0.0 
0.945398 0.0327827 0.0 
0.97529 0.22616 0.0 
0.850537 0.285857 0.0 
0.995168 0.00758063 0.0 
1.00186 0 0.0 
0.998792 0.0122407 0.0 
0.977272 0.00155636 0.0 
0.89705 0.153304 0.0 
0.136712 0.0081096 0.0 
1.01038 0.0438835 0.0 
0.980782 0.00717131 0.0 
0.999381 0.0126386 0.0 
0.916023 -0.071868 0.0 
0.916631 0.0329912 0.0 
1.20057 -0.0308727 0.0 
0.998664 0.0125197 0.0 
0.985864 0.0871396 0.0 
0.791519 -0.0903793 0.0 
1.03488 -0.0230905 0.0 
0.936213 0.0636577 0.0 
0.995226 0.0163303 0.0 
0.944428 0.0275441 0.0 
0.990994 0.020155 0.0 
0.0779465 0.00828988 0.0 
0.780588 -0.0776146 0.0 
1.0387 -0.00533371 0.0 
1.14106 0.0863505 0.0 
1.1576 -0.0344016 0.0 
0.997687 0.010785 0.0 
0.982116 0.0186727 0.0 
1.00577 0.201557 0.0 
1.11406 0.156716 0.0 
0.586316 0.0953088 0.0 
0.951179 0.188959 0.0 
0.981495 0.019037 0.0 
0.383912 -0.0333918 0.0 
0.982476 0.0219677 0.0 
0.997262 0.0128566 0.0 
1.00026 0.019807 0.0 
0.331409 -0.020104 0.0 
0.284641 -0.0121708 0.0 
0.981635 0.0302284 0.0 
0.340427 0.0580633 0.0 
1.19182 0.0872958 0.0 
1.00963 0.0433381 0.0 
0.980787 0.0324859 0.0 
0.999627 0.0197006 0.0 
0.977943 0.0112533 0.0 
0.930309 0.0687029 0.0 
0.976627 0.0257724 0.0 
0.852187 0.285053 0.0 
0.529435 -0.0312102 0.0 
0.308555 -0.0176944 0.0 
0.968205 0.0135275 0.0 
0.974815 0.0121575 0.0 
1.0544 0.20425 0.0 
0.389782 -0.0262878 0.0 
0.939861 0.0210053 0.0 
1.03635 -0.037626 0.0 
0.983158 0.245587 0.0 
0.999178 0.0137663 0.0 
0.922556 0.0818063 0.0 
0.972274 0.0310848 0.0 
0.930165 0.143223 0.0 
0.961862 0.155686 0.0 
1.00901 0.25494 0.0 
0.716779 -0.0303735 0.0 
0.937472 -0.0523345 0.0 
1.10782 0.0610063 0.0 
0.471014 0.0935839 0.0 
0.926618 -0.0596631 0.0 
0.188909 0.0125871 0.0 
0.899194 -0.0128693 0.0 
0.751596 0.135721 0.0 
0.915358 -0.0664384 0.0 
0.922426 -0.0561544 0.0 
0.616236 0.16516 0.0 
1.04804 0.00689175 0.0 
0.940938 0.173285 0.0 
0.879778 -0.00492658 0.0 
0.928531 -0.0537312 0.0 
1.03689 -0.00724982 0.0 
0.342446 0.0415369 0.0 
1.03531 -0.00978588 0.0 
0.866161 0.00739948 0.0 
0.89878 0.217119 0.0 
1.04337 -0.00105818 0.0 
0.906935 -0.088109 0.0 
0.923408 0.182484 0.0 
0.375137 -0.0295585 0.0 
1.12095 0.0643058 0.0 
1.03638 0.169469 0.0 
0.831661 0.380799 0.0 
1.10198 0.164113 0.0 
1.06475 0.259411 0.0 
0.98429 -0.0448493 0.0 
0.765062 -0.107805 0.0 
0.977739 0.0333685 0.0 
0.527171 0.0617419 0.0 
0.918688 -0.0526531 0.0 
1.03979 0.065818 0.0 
0.257848 -0.000793536 0.0 
1.04406 0.263317 0.0 
1.05311 0.0397766 0.0 
0.879057 0.105266 0.0 
1.00501 0.0220348 0.0 
0.892794 0.0669502 0.0 
0.214449 0.00510931 0.0 
0.853352 0.0763945 0.0 
0.949435 0.0368959 0.0 
0.947294 0.00390657 0.0 
1.17232 -0.0363269 0.0 
0.763973 0.335317 0.0 
0.847712 0.0891087 0.0 
1.02769 0.072931 0.0 
1.082 -0.0946886 0.0 
0.921353 -0.0468844 0.0 
1.04048 0.271566 0.0 
0.964731 0.0169183 0.0 
0.995497 0.0404706 0.0 
0.91029 0.0770159 0.0 
0.924603 0.112613 0.0 
0.910701 0.0354344 0.0 
1.00906 0.0278183 0.0 
0.919844 0.105934 0.0 
0.917499 0.220742 0.0 
0.999109 0.0128503 0.0 
1.09156 -0.0698792 0.0 
0.391982 -0.0356041 0.0 
1.0545 0.250732 0.0 
0.966207 0.202877 0.0 
0.807178 0.151217 0.0 
0.82705 0.0381912 0.0 
0.886326 0.0298444 0.0 
1.04235 0.304972 0.0 
0.999495 0.0175354 0.0 
1.12443 0.138855 0.0 
1.03318 0.226104 0.0 
0.88674 -0.048345 0.0 
0.922938 -0.00190745 0.0 
0.858447 0.158371 0.0 
0.910965 0.0206705 0.0 
0.88522 0.0148587 0.0 
0.932571 -0.0460495 0.0 
0.934232 0.207136 0.0 
0.995533 0.0305399 0.0 
0.999483 0.0150427 0.0 
0.185262 0.00941407 0.0 
0.165916 0.0114115 0.0 
0.912924 0.0277815 0.0 
0.527652 0.15371 0.0 
1.03589 -0.00858001 0.0 
0.921896 -0.0163644 0.0 
0.977969 -0.000933502 0.0 
0.902652 0.076483 0.0 
0.842004 0.00672256 0.0 
1.08141 -0.0663003 0.0 
0.955029 0.00801341 0.0 
0.975518 0.00916298 0.0 
1.0844 0.267335 0.0 
0.312922 -0.0131062 0.0 
0.930757 0.300124 0.0 
0.97298 0.002684 0.0 
0.988606 0.0542554 0.0 
1.06896 -0.229014 0.0 
0.968954 0.00472446 0.0 
0.961702 0.0125976 0.0 
0.997671 0.0134158 0.0 
1.03599 -0.00938089 0.0 
0.801748 0.107922 0.0 
0.904483 0.0184063 0.0 
0.990933 0.00550899 0.0 
1.02848 -0.182402 0.0 
0.995107 0.0156028 0.0 
0.935485 0.0241418 0.0 
0.812856 0.167991 0.0 
0.949956 -0.00845771 0.0 
0.998097 0.0102638 0.0 
0.938719 0.00474861 0.0 
0.189122 0.128503 0.0 
0.943833 -0.0083629 0.0 
1.06266 -0.00890195 0.0 
0.954063 0.288539 0.0 
0.125371 0.0088021 0.0 
1.10161 0.25456 0.0 
0.988022 0.0149607 0.0 
0.972036 -0.149654 0.0 
0.96884 0.00188616 0.0 
0.959605 0.00918348 0.0 
0.959844 0.00458013 0.0 
0.544614 0.13491 0.0 
0.961878 0.00189767 0.0 
0.955948 -0.0135439 0.0 
0.653508 0.1842 0.0 
1.03297 -0.0131846 0.0 
1.03284 0.0459207 0.0 
0.997775 0.265681 0.0 
0.980935 0.0209543 0.0 
0.975343 0.0291417 0.0 
0.964654 0.00397866 0.0 
0.893513 0.0129236 0.0 
0.95889 -0.0178475 0.0 
0.118751 -0.00114387 0.0 
0.968694 -0.000182721 0.0 
1.05659 0.0175003 0.0 
0.876306 0.167929 0.0 
0.996445 0.0121874 0.0 
1.06114 0.0268751 0.0 
1.05664 0.0946818 0.0 
1.10195 -0.0699325 0.0 
1.09571 0.104171 0.0 
0.976522 -0.00290559 0.0 
0.876971 0.182876 0.0 
0.996579 0.0146251 0.0 
0.996917 0.0112624 0.0 
0.890257 -0.0412179 0.0 
0.978595 0.0259181 0.0 
1.16415 -0.226622 0.0 
0.69911 0.00640977 0.0 
0.942049 0.0415716 0.0 
1.01767 0.302395 0.0 
0.908772 0.353109 0.0 
0.839202 0.132012 0.0 
1.15795 0.072849 0.0 
0.1543 0.13416 0.0 
1.01889 0.289332 0.0 
1.06702 0.265445 0.0 
1.03687 -0.00659043 0.0 
0.938868 0.0941455 0.0 
0.0526765 0.00604554 0.0 
1.17621 0.145528 0.0 
0.977675 0.0320099 0.0 
0.910093 0.121934 0.0 
1.12747 0.219003 0.0 
0.851552 0.124201 0.0 
-0.0370125 -0.0214797 0.0 
0.978773 0.0301456 0.0 
0.925172 0.0735705 0.0 
0.748016 0.140237 0.0 
0.979623 0.0268891 0.0 
0.911893 0.149981 0.0 
0.99583 0.0126717 0.0 
0.90322 0.101378 0.0 
0.979114 0.0280578 0.0 
0.854072 0.0555766 0.0 
0.831234 0.0224585 0.0 
0.904381 0.164044 0.0 
0.998725 0.011533 0.0 
0.968891 -0.00466365 0.0 
0.980091 0.0252305 0.0 
0.999027 0.0178033 0.0 
0.962732 -0.00469954 0.0 
0.961689 -0.00837901 0.0 
0.96619 -0.00415345 0.0 
0.938551 -0.0414144 0.0 
0.925942 0.0580829 0.0 
0.926554 0.0880224 0.0 
1.03797 -0.00183784 0.0 
0.98962 0.0322304 0.0 
1.05973 0.028236 0.0 
0.999119 0.0147016 0.0 
1.0757 -0.00482113 0.0 
1.00478 0.0798981 0.0 
0.94973 0.0133178 0.0 
0.976838 0.0272193 0.0 
1.05001 -0.160677 0.0 
1.10233 0.242414 0.0 
1.12487 0.230549 0.0 
0.933767 -0.0321828 0.0 
0.999014 0.0142262 0.0 
0.951219 0.0109745 0.0 
0.996325 0.013768 0.0 
0.979564 0.00544483 0.0 
1.05255 0.011223 0.0 
1.04892 -0.171389 0.0 
0.108178 0.0013647 0.0 