<VTKFile type="UnstructuredGrid" version="0.1" byte_order="LittleEndian">
  <UnstructuredGrid>
    <Piece NumberOfPoints="9712" NumberOfCells="19403">
      <Points>
        <DataArray type = "Float64" NumberOfComponents="3" format="ascii">
-5 -7 0.0 
15.5 -7 0.0 
15.5 7 0.0 
-5 7 0.0 
-1.6546 1.77742 0.0 
-2.13867 1.86504 0.0 
-1.83467 1.79143 0.0 
1.47969 -2.21179 0.0 
1.36003 -2.38618 0.0 
1.4346 -2.45048 0.0 
-2.04214 1.94165 0.0 
-0.20425 1.17338 0.0 
-2.07648 1.81911 0.0 
-2.00827 1.89081 0.0 
-2.05492 1.98872 0.0 
0.192693 0.536219 0.0 
0.154285 1.75648 0.0 
1.1379 -1.62057 0.0 
-2.11226 1.96977 0.0 
-1.74119 1.75327 0.0 
1.14499 -1.58184 0.0 
-1.94373 2.37229 0.0 
1.50619 -0.664239 0.0 
1.99658 -1.76705 0.0 
1.7229 -1.18344 0.0 
-1.97759 2.52091 0.0 
-0.768046 0.387136 0.0 
1.32657 -1.43969 0.0 
1.90142 0.24821 0.0 
-0.93264 1.51038 0.0 
1.09557 0.967223 0.0 
0.627111 0.757352 0.0 
-2.05707 2.31394 0.0 
1.34027 -2.45136 0.0 
-0.725097 0.397516 0.0 
-0.666094 2.30428 0.0 
-0.73829 -0.279965 0.0 
1.73336 -1.08822 0.0 
1.88466 -1.24421 0.0 
1.50539 -1.23752 0.0 
1.65978 -1.30759 0.0 
-0.0409718 0.542603 0.0 
1.6005 -1.1227 0.0 
1.78439 -0.941488 0.0 
1.86015 -1.54236 0.0 
1.49308 -1.40058 0.0 
2.34892 -1.47149 0.0 
2.13832 -1.3246 0.0 
1.73061 0.751302 0.0 
-0.580328 0.526903 0.0 
1.51013 -2.1595 0.0 
-1.65424 3.45779 0.0 
-1.51397 2.46352 0.0 
1.42773 -2.17867 0.0 
0.304353 0.497878 0.0 
2.24628 0.228293 0.0 
1.51258 -2.27933 0.0 
-1.60346 3.44299 0.0 
-1.71408 2.36227 0.0 
2.17421 0.530405 0.0 
2.42 0.316451 0.0 
-1.63642 3.31911 0.0 
2.53942 -0.995036 0.0 
0.750003 0.810439 0.0 
2.04736 0.40918 0.0 
1.19615 -1.50641 0.0 
2.13474 0.494063 0.0 
0.547924 0.306722 0.0 
-0.2059 0.361394 0.0 
2.2127 0.547693 0.0 
1.41442 -0.597105 0.0 
1.52233 -1.46252 0.0 
-1.84114 2.53924 0.0 
-5 -2.53894 0.0 
2.32127 0.371156 0.0 
-1.69186 3.33379 0.0 
-0.964779 0.566136 0.0 
-1.81311 2.48387 0.0 
-1.78557 3.38304 0.0 
1.48278 0.914136 0.0 
2.51531 -1.89689 0.0 
1.20982 -0.330514 0.0 
0.408434 0.319657 0.0 
0.95023 0.60993 0.0 
-0.752349 0.440796 0.0 
-0.998248 0.564019 0.0 
-1.73165 3.36299 0.0 
1.24353 -1.49063 0.0 
0.942095 0.817189 0.0 
-1.77816 2.47096 0.0 
2.48183 -1.95479 0.0 
1.33574 -1.77854 0.0 
0.823335 1.12085 0.0 
-0.36308 0.598468 0.0 
0.745466 0.783414 0.0 
-1.88344 2.8521 0.0 
-1.79794 3.52221 0.0 
3.0087 0.272815 0.0 
-1.81486 2.66014 0.0 
0.375911 -0.403668 0.0 
-0.68323 0.487288 0.0 
-0.34187 -0.274923 0.0 
-0.293875 -0.201368 0.0 
1.61018 -1.767 0.0 
-0.448275 -0.347267 0.0 
-1.08687 0.352015 0.0 
1.29257 -1.76345 0.0 
1.67658 -1.49551 0.0 
1.19193 0.533009 0.0 
1.21582 -1.91654 0.0 
-0.36438 -0.346225 0.0 
-0.92534 0.330346 0.0 
2.3836 0.287756 0.0 
1.68841 0.639887 0.0 
1.59001 -1.89458 0.0 
1.14818 -1.92143 0.0 
1.28996 -2.19426 0.0 
1.37603 -1.8763 0.0 
1.23834 -2.09141 0.0 
1.11702 -2.06287 0.0 
0.691829 0.463808 0.0 
1.46523 -2.03459 0.0 
-0.123547 0.424486 0.0 
-1.3311 2.12174 0.0 
1.08169 -1.90074 0.0 
1.87975 -2.15971 0.0 
1.10131 -1.78593 0.0 
1.13722 0.534683 0.0 
1.42465 -1.59031 0.0 
-1.45435 2.47344 0.0 
1.41998 -1.98207 0.0 
0.463917 1.8787 0.0 
-1.72896 2.89571 0.0 
1.12419 -1.84975 0.0 
1.59054 -1.20634 0.0 
0.46124 0.621002 0.0 
0.806438 -1.00204 0.0 
2.1804 0.349761 0.0 
2.21142 -1.6418 0.0 
1.10152 -0.274558 0.0 
2.23388 0.387302 0.0 
0.137769 0.567007 0.0 
1.88736 0.267391 0.0 
1.26821 -1.94267 0.0 
0.21033 -0.605707 0.0 
2.61094 -1.50046 0.0 
0.819837 0.743337 0.0 
-1.4303 2.07799 0.0 
1.82013 0.322126 0.0 
-1.47649 2.2099 0.0 
1.15745 -0.274223 0.0 
-1.81198 2.24994 0.0 
2.34337 -1.67775 0.0 
-1.13329 1.37877 0.0 
-0.828215 1.05292 0.0 
2.46752 -1.53452 0.0 
-1.69915 2.18529 0.0 
-0.404416 -0.286271 0.0 
-1.23501 1.31766 0.0 
2.11757 -1.50659 0.0 
-1.08535 1.28274 0.0 
2.58548 -1.70783 0.0 
0.24729 -0.572345 0.0 
-1.66963 2.25319 0.0 
1.58322 -1.62308 0.0 
-0.367923 -0.306026 0.0 
0.391521 1.44485 0.0 
1.88977 -2.46319 0.0 
1.5943 -1.53613 0.0 
-0.357143 -0.23651 0.0 
0.82621 0.80563 0.0 
-1.59261 2.31884 0.0 
-0.47244 -0.307516 0.0 
-0.40334 -0.326688 0.0 
-2.00063 2.11543 0.0 
1.55514 -1.95078 0.0 
-1.40431 2.26352 0.0 
-0.0265928 0.573714 0.0 
1.17093 1.10579 0.0 
-1.77907 2.22111 0.0 
0.682788 0.329642 0.0 
-0.54475 2.15572 0.0 
-0.288592 0.289433 0.0 
-1.43199 2.16349 0.0 
-1.45029 2.25134 0.0 
1.5535 -1.79992 0.0 
-1.06406 1.08381 0.0 
1.72954 1.44966 0.0 
0.582806 0.515814 0.0 
0.582876 -0.679913 0.0 
1.32351 -0.355916 0.0 
-0.47505 0.577092 0.0 
-0.371167 0.227715 0.0 
1.52235 -1.8529 0.0 
-0.429822 -0.244811 0.0 
-0.53237 -0.24648 0.0 
-0.393983 -0.210364 0.0 
0.652895 0.317361 0.0 
1.55812 -1.70765 0.0 
1.63021 0.325622 0.0 
0.442731 0.358729 0.0 
1.22925 -1.85192 0.0 
1.43517 -1.79082 0.0 
1.39317 -1.6984 0.0 
1.62965 0.295952 0.0 
0.905462 0.793465 0.0 
1.04036 -1.64811 0.0 
2.1131 -1.72466 0.0 
-0.743911 0.369492 0.0 
1.14427 -1.99314 0.0 
1.26033 -2.0209 0.0 
-1.70955 2.07308 0.0 
0.910023 -1.62976 0.0 
-0.313059 -0.0954838 0.0 
-1.77334 2.3988 0.0 
-0.311958 -0.24042 0.0 
2.53315 0.325608 0.0 
-0.273728 -0.226719 0.0 
-0.646401 0.379627 0.0 
1.52426 0.616074 0.0 
2.21703 -1.79499 0.0 
2.71108 0.312216 0.0 
0.759924 1.093 0.0 
-1.69271 2.12368 0.0 
0.255794 0.540969 0.0 
0.0534699 0.562158 0.0 
-1.5679 2.22408 0.0 
-1.66906 2.45165 0.0 
-1.51895 2.09449 0.0 
2.16948 0.408238 0.0 
-0.818806 0.680638 0.0 
-0.826868 0.642087 0.0 
0.519855 0.276992 0.0 
-0.716682 1.18602 0.0 
-0.649974 -0.148775 0.0 
0.457368 0.256619 0.0 
0.517407 0.248194 0.0 
0.327129 0.39802 0.0 
0.533249 -0.878832 0.0 
-0.870735 0.634904 0.0 
1.19219 1.07557 0.0 
2.35922 0.366028 0.0 
-1.66911 3.66723 0.0 
-0.857603 1.54934 0.0 
-0.379189 2.30131 0.0 
-0.941007 1.36523 0.0 
-1.58662 2.49682 0.0 
-0.545297 0.352587 0.0 
0.327944 -0.744683 0.0 
-0.312756 0.524741 0.0 
-0.107843 0.506233 0.0 
2.13378 -2.36584 0.0 
1.52689 0.686953 0.0 
-0.119983 0.327909 0.0 
1.02161 -1.53072 0.0 
1.51507 0.39695 0.0 
-0.674484 1.02605 0.0 
-0.564724 -0.148435 0.0 
0.409388 0.290913 0.0 
0.252349 0.30842 0.0 
-1.09282 1.45998 0.0 
1.45674 -1.54484 0.0 
-0.266777 0.782169 0.0 
0.91327 -0.874389 0.0 
1.01208 1.13309 0.0 
-0.897136 1.35063 0.0 
-0.846484 0.489353 0.0 
1.47563 0.663768 0.0 
-1.22282 2.05021 0.0 
0.348906 0.416714 0.0 
1.41913 0.964648 0.0 
0.933289 -0.839038 0.0 
-1.85066 1.40221 0.0 
0.142477 1.99435 0.0 
-0.717809 0.341194 0.0 
-2.21177 1.41584 0.0 
0.396571 0.350929 0.0 
1.25171 -1.60721 0.0 
0.736798 0.393502 0.0 
-0.661427 0.19031 0.0 
2.18751 -2.32769 0.0 
-1.00908 1.6747 0.0 
2.21416 -2.07269 0.0 
-0.779194 0.642011 0.0 
-1.02312 1.3939 0.0 
2.08809 -2.24876 0.0 
-5 -4.48794 0.0 
1.61792 -1.46215 0.0 
-0.974627 1.38947 0.0 
1.81166 -2.48446 0.0 
-1.03635 1.47474 0.0 
0.869004 -1.74424 0.0 
0.956579 -1.78598 0.0 
1.07495 0.540689 0.0 
-1.08005 1.37763 0.0 
0.914755 -0.803058 0.0 
0.611759 -0.305322 0.0 
1.70043 -1.41356 0.0 
0.75708 -0.631542 0.0 
1.21215 1.01979 0.0 
-0.586902 0.440014 0.0 
1.9251 -2.56336 0.0 
-1.58261 1.91091 0.0 
-0.746541 1.26087 0.0 
-1.49915 1.13657 0.0 
-1.46675 0.971536 0.0 
-1.05881 0.930935 0.0 
0.71826 0.415078 0.0 
-0.701697 0.526982 0.0 
-1.56194 2.05157 0.0 
1.15988 0.991244 0.0 
1.38676 0.949615 0.0 
-1.61697 2.02689 0.0 
1.13748 -0.357331 0.0 
-1.8456 2.04561 0.0 
0.253686 -0.756334 0.0 
-1.53603 1.86509 0.0 
-1.43465 0.924137 0.0 
-1.00273 1.27416 0.0 
-1.03063 1.5132 0.0 
-1.32483 1.94769 0.0 
-0.965552 1.61445 0.0 
-0.239859 -0.245939 0.0 
-5 3.01776 0.0 
-5 -0.248741 0.0 
0.517491 1.87079 0.0 
-1.18776 1.8875 0.0 
2.27458 0.36201 0.0 
1.9794 0.331487 0.0 
0.503086 0.510306 0.0 
1.26387 -0.370702 0.0 
1.24483 0.550197 0.0 
1.12871 0.979556 0.0 
-1.48659 1.83259 0.0 
1.0672 0.958366 0.0 
-1.16856 1.61214 0.0 
-0.218637 -0.230696 0.0 
-5 1.81431 0.0 
1.37014 1.04658 0.0 
0.0950623 0.557621 0.0 
-1.23613 1.67303 0.0 
0.953731 -0.709843 0.0 
2.07568 -1.85385 0.0 
2.10836 -1.82014 0.0 
-0.994952 1.33552 0.0 
-1.86986 1.52312 0.0 
0.515812 0.447542 0.0 
0.842446 0.992035 0.0 
-1.42353 1.8223 0.0 
2.091 0.354014 0.0 
-0.937663 0.401428 0.0 
-1.69305 1.41997 0.0 
-1.82465 1.55127 0.0 
2.15192 0.384657 0.0 
-1.17972 1.37998 0.0 
-0.718866 -0.0130647 0.0 
-0.927867 0.290435 0.0 
1.56509 0.300406 0.0 
-5 -3.04052 0.0 
9.98027 -7 0.0 
0.176009 0.694641 0.0 
0.597997 -0.559941 0.0 
-0.546583 0.4849 0.0 
0.602022 -0.657834 0.0 
2.17737 0.379672 0.0 
1.89809 0.287017 0.0 
-1.58883 1.35796 0.0 
-1.2284 1.37063 0.0 
-1.43937 1.35342 0.0 
-1.59664 1.47263 0.0 
0.577431 -0.368705 0.0 
1.5263 -1.51093 0.0 
0.479666 0.796509 0.0 
0.894995 1.01463 0.0 
2.22312 0.363016 0.0 
-0.320562 0.726481 0.0 
-1.30188 2.41386 0.0 
0.43802 0.434693 0.0 
-0.761697 0.762024 0.0 
1.45688 -1.49591 0.0 
-0.65072 0.676835 0.0 
1.6097 -1.41509 0.0 
2.25768 0.399237 0.0 
1.85518 0.299709 0.0 
2.14618 0.290757 0.0 
2.25222 0.371677 0.0 
-1.93063 2.91367 0.0 
1.52717 0.319618 0.0 
1.67964 -1.62237 0.0 
1.35962 -0.439169 0.0 
1.63007 -1.54335 0.0 
-5 -0.764504 0.0 
-1.61377 2.62271 0.0 
1.73865 -1.57725 0.0 
-0.908306 1.23669 0.0 
1.60766 0.330292 0.0 
1.82509 -1.63054 0.0 
1.90521 0.312457 0.0 
1.98719 -1.6488 0.0 
-0.528791 0.39225 0.0 
1.94978 -2.39003 0.0 
-0.472559 0.718465 0.0 
-1.28058 2.26572 0.0 
0.881581 -0.556282 0.0 
2.26369 0.42542 0.0 
0.917309 -1.69962 0.0 
0.853954 -1.60945 0.0 
1.30086 -0.404316 0.0 
1.99565 -2.46852 0.0 
1.49445 -1.47573 0.0 
1.68285 0.863315 0.0 
2.03074 -2.37549 0.0 
2.52279 -0.506167 0.0 
2.56049 -1.76899 0.0 
-1.52889 2.56597 0.0 
2.81136 -0.570221 0.0 
1.3688 -1.46095 0.0 
1.29524 -0.373946 0.0 
-0.350504 0.671928 0.0 
-0.590282 0.564035 0.0 
-0.054366 2.16706 0.0 
1.50819 1.22548 0.0 
-0.548222 0.453941 0.0 
2.19936 -2.5207 0.0 
12.2704 -7 0.0 
1.6811 -1.36761 0.0 
-0.449261 0.559535 0.0 
0.537017 -0.527614 0.0 
-0.00733391 0.553304 0.0 
0.494109 -0.356396 0.0 
-0.7939 0.0827441 0.0 
0.39888 0.467333 0.0 
-1.04288 1.34095 0.0 
0.605019 1.02824 0.0 
0.847559 0.374727 0.0 
1.00336 0.618307 0.0 
2.1955 0.399186 0.0 
0.656973 0.401158 0.0 
-0.998431 2.73564 0.0 
[...]
<PointData>
  <DataArray type = "Float64" Name="VitesseP1" NumberOfComponents="3" format="ascii">
1 0 0.0 
1.09007 0 0.0 
1.03417 0 0.0 
1 0 0.0 
0.994669 0.0155329 0.0 
0.996947 0.0109175 0.0 
0.99554 0.0133651 0.0 
1.0433 -0.0028265 0.0 
1.04528 -0.003801 0.0 
1.05101 -0.00316836 0.0 
0.997788 0.0118328 0.0 
0.986709 0.0722651 0.0 
0.996641 0.0112448 0.0 
0.996857 0.0120228 0.0 
0.998935 0.0118341 0.0 
0.992501 0.217857 0.0 
1.01986 0.0530976 0.0 
1.05003 -0.0256704 0.0 
0.998858 0.0112628 0.0 
0.995075 0.0142812 0.0 
1.05539 -0.026658 0.0 
0.998897 0.0131294 0.0 
1.16122 -0.0264818 0.0 
1.04801 0.012784 0.0 
1.06536 -0.00219008 0.0 
0.998867 0.0127102 0.0 
0.944618 0.00849472 0.0 
1.0641 -0.0218458 0.0 
0.0644942 -0.000210559 0.0 
0.988873 0.0310532 0.0 
1.14298 0.0669715 0.0 
1.1103 0.141754 0.0 
0.998883 0.0121513 0.0 
1.03508 -0.0168861 0.0 
0.941466 0.0120783 0.0 
1.00552 0.0299761 0.0 
0.937012 -0.0514677 0.0 
1.08638 -0.00211689 0.0 
1.05848 0.00856684 0.0 
1.05558 -0.0156948 0.0 
1.05862 -0.00511828 0.0 
0.927064 0.151352 0.0 
1.07667 -0.0113571 0.0 
1.12802 0.00108317 0.0 
1.06983 0.00730204 0.0 
1.06483 -0.0137006 0.0 
1.06607 0.0350544 0.0 
1.05994 0.0243243 0.0 
1.20039 0.0264493 0.0 
0.939641 0.035387 0.0 
1.04199 -0.0028405 0.0 
1.00248 0.0120111 0.0 
0.999869 0.0172167 0.0 
1.04139 -0.00444061 0.0 
1.03796 0.242884 0.0 
0.0296331 0.0108786 0.0 
1.0451 -0.00173585 0.0 
1.0027 0.0123964 0.0 
0.999134 0.0153538 0.0 
1.16894 -0.00546845 0.0 
0.147973 -0.00932196 0.0 
1.0024 0.0126685 0.0 
1.09928 0.0588769 0.0 
1.12323 0.120187 0.0 
0.569891 0.00208581 0.0 
1.06157 -0.0266383 0.0 
1.07843 -0.00279078 0.0 
0.556884 0.134604 0.0 
0.862913 0.0852231 0.0 
1.18904 -0.010414 0.0 
1.20361 -0.038218 0.0 
1.06816 -0.011248 0.0 
0.999086 0.0138294 0.0 
1 0 0.0 
0.314644 -0.0159059 0.0 
1.00217 0.012264 0.0 
0.968175 0.010377 0.0 
0.999107 0.0141831 0.0 
1.00178 0.0114774 0.0 
1.17439 0.034185 0.0 
1.03934 0.0257259 0.0 
0.751645 -0.0406027 0.0 
0.948969 0.262886 0.0 
1.17391 0.114516 0.0 
0.946254 0.0140214 0.0 
0.969984 0.008678 0.0 
1.00207 0.0118926 0.0 
1.06298 -0.0248628 0.0 
1.14403 0.0967616 0.0 
0.999173 0.0145272 0.0 
1.04554 0.0298952 0.0 
1.04306 -0.0139262 0.0 
1.09701 0.0788288 0.0 
0.935623 0.0697837 0.0 
1.12557 0.124345 0.0 
0.999917 0.0126208 0.0 
1.00216 0.0107156 0.0 
0.0207728 -0.160245 0.0 
0.99928 0.0137545 0.0 
1.19168 -0.234584 0.0 
0.944156 0.0227791 0.0 
0.91896 -0.0885316 0.0 
0.915742 -0.0746645 0.0 
1.04775 -0.00337548 0.0 
0.924568 -0.0784158 0.0 
0.967222 -0.00832219 0.0 
1.0427 -0.0159083 0.0 
1.07008 -0.00260988 0.0 
1.19727 0.0822353 0.0 
1.03832 -0.0153423 0.0 
0.920295 -0.0887675 0.0 
0.954925 -0.00383413 0.0 
0.0883944 0.00206749 0.0 
1.20362 0.0332561 0.0 
1.0447 -0.00306478 0.0 
1.03671 -0.0172109 0.0 
1.03892 -0.0070998 0.0 
1.04228 -0.0107297 0.0 
1.0361 -0.0110243 0.0 
1.03303 -0.016107 0.0 
1.16429 0.183917 0.0 
1.03989 -0.00547092 0.0 
0.877459 0.125768 0.0 
0.999137 0.0206917 0.0 
1.03552 -0.0198103 0.0 
1.04223 0.00617077 0.0 
1.03769 -0.022254 0.0 
1.19679 0.0898222 0.0 
1.06183 -0.0140839 0.0 
1.00012 0.0178328 0.0 
1.03982 -0.00761232 0.0 
1.02955 0.0464375 0.0 
1.00076 0.0136345 0.0 
1.03736 -0.0198515 0.0 
1.06024 -0.0106954 0.0 
1.08784 0.188783 0.0 
1.0692 -0.0731772 0.0 
0.166402 0.0042865 0.0 
1.05609 0.0239206 0.0 
0.456191 -0.0391141 0.0 
0.411794 -0.00932205 0.0 
0.977888 0.196269 0.0 
0.0695821 -0.00598857 0.0 
1.03843 -0.0131258 0.0 
1.03114 -0.1606 0.0 
1.05472 0.0516015 0.0 
1.13986 0.12012 0.0 
0.998838 0.0193166 0.0 
0.0809882 0.0048241 0.0 
0.999011 0.018393 0.0 
0.409143 -0.0166961 0.0 
0.998812 0.0144608 0.0 
1.04797 0.0289808 0.0 
0.985277 0.0243219 0.0 
0.973532 0.03412 0.0 
1.05919 0.0400341 0.0 
0.998647 0.0156986 0.0 
0.92295 -0.0796686 0.0 
0.984277 0.0207549 0.0 
1.06928 0.0212788 0.0 
0.981718 0.0251814 0.0 
1.03558 0.0366263 0.0 
1.04048 -0.171114 0.0 
0.998934 0.0159825 0.0 
1.05976 -0.00607328 0.0 
0.92038 -0.0860407 0.0 
1.03452 0.0690993 0.0 
1.04924 -0.000709111 0.0 
1.06857 -0.00654602 0.0 
0.916601 -0.0818587 0.0 
1.13322 0.111957 0.0 
0.99925 0.0167517 0.0 
0.927832 -0.0728597 0.0 
0.922415 -0.0827332 0.0 
0.998663 0.0125496 0.0 
1.04236 -0.00378274 0.0 
0.99951 0.0192083 0.0 
0.939136 0.151295 0.0 
1.13077 0.0483219 0.0 
0.998755 0.0148156 0.0 
0.633723 0.110727 0.0 
1.00615 0.0340585 0.0 
0.863472 0.0451907 0.0 
0.998968 0.0191066 0.0 
0.999314 0.0186339 0.0 
1.04593 -0.00531217 0.0 
0.974082 0.0236872 0.0 
1.0714 -0.0386832 0.0 
1.14176 0.199433 0.0 
1.10941 -0.12898 0.0 
0.869586 -0.0308411 0.0 
0.938319 0.0516245 0.0 
0.875146 0.0161602 0.0 
1.0448 -0.0059112 0.0 
0.924186 -0.0732387 0.0 
0.933292 -0.0627192 0.0 
0.91891 -0.0743933 0.0 
0.581189 0.110929 0.0 
1.05099 -0.00621107 0.0 
0.115385 0.0176424 0.0 
1.03737 0.264815 0.0 
1.03979 -0.016288 0.0 
1.0446 -0.00999701 0.0 
1.04931 -0.0133864 0.0 
0.09451 0.0260321 0.0 
1.14324 0.103487 0.0 
1.04404 -0.0285727 0.0 
1.04914 0.0181421 0.0 
0.941514 0.00833135 0.0 
1.03429 -0.0160614 0.0 
1.03642 -0.0117549 0.0 
0.998775 0.0155869 0.0 
1.04111 -0.0338837 0.0 
0.898679 -0.0656858 0.0 
0.9991 0.0146974 0.0 
0.909845 -0.0858811 0.0 
0.214588 -0.0251523 0.0 
0.887972 -0.0840801 0.0 
0.932717 0.0158412 0.0 
1.20183 0.0452575 0.0 
1.04508 0.0217449 0.0 
0.288906 -0.045096 0.0 
1.09643 0.0864675 0.0 
0.998596 0.0157849 0.0 
1.01923 0.222781 0.0 
0.95171 0.177031 0.0 
0.998939 0.0172127 0.0 
0.999384 0.0156245 0.0 
0.998801 0.0180318 0.0 
0.566016 -0.00467322 0.0 
0.967749 0.0248257 0.0 
0.965451 0.0223379 0.0 
0.414119 0.135674 0.0 
0.976647 0.0405504 0.0 
0.940254 -0.04458 0.0 
0.301355 0.101432 0.0 
0.37506 0.184305 0.0 
1.06346 0.296631 0.0 
1.06953 -0.102749 0.0 
0.967209 0.0192614 0.0 
1.13844 0.04858 0.0 
0.303871 -0.0159081 0.0 
1.00073 0.0112904 0.0 
0.990482 0.0333644 0.0 
1.00967 0.0344835 0.0 
0.983905 0.0307546 0.0 
0.999696 0.0163408 0.0 
0.91885 0.0210953 0.0 
1.05908 -0.131416 0.0 
0.91911 0.0753927 0.0 
0.908874 0.131724 0.0 
1.04782 0.0147302 0.0 
1.19323 0.0423245 0.0 
0.830034 0.116502 0.0 
1.05591 -0.0334308 0.0 
0.566476 0.0219029 0.0 
0.975831 0.0431861 0.0 
0.932653 -0.0504722 0.0 
0.702011 0.194565 0.0 
0.899283 0.338813 0.0 
0.987381 0.0259679 0.0 
1.0662 -0.01323 0.0 
0.967396 0.0859395 0.0 
1.11362 -0.0766471 0.0 
1.11141 0.0615732 0.0 
0.983288 0.0324011 0.0 
0.956349 0.0118397 0.0 
1.19377 0.0474841 0.0 
0.999237 0.0226893 0.0 
1.07773 0.283666 0.0 
1.16721 0.0357814 0.0 
1.1241 -0.0776907 0.0 
0.994115 0.00993804 0.0 
1.0183 0.0448494 0.0 
0.93753 0.00722339 0.0 
0.997247 0.00829368 0.0 
1.01846 0.284112 0.0 
1.05537 -0.0213017 0.0 
1.00081 0.151422 0.0 
0.925217 -0.00683045 0.0 
1.03736 0.0339276 0.0 
0.992911 0.0284065 0.0 
1.03829 0.0185804 0.0 
0.962872 0.0255213 0.0 
0.985121 0.0279641 0.0 
1.03795 0.00919728 0.0 
1 0 0.0 
1.06937 -0.00605429 0.0 
0.984849 0.0296062 0.0 
1.0474 0.000128756 0.0 
0.987677 0.0277433 0.0 
1.0315 -0.0309483 0.0 
1.03377 -0.0270269 0.0 
1.19401 0.0990698 0.0 
0.984912 0.0260022 0.0 
1.12976 -0.0823089 0.0 
0.913428 -0.146674 0.0 
1.06803 -0.00192176 0.0 
1.12818 -0.114849 0.0 
1.14727 0.0509862 0.0 
0.931447 0.0270756 0.0 
1.03759 0.00200146 0.0 
0.996013 0.0169689 0.0 
0.97989 0.0389069 0.0 
0.984138 0.0109363 0.0 
0.995515 0.0101896 0.0 
0.990088 0.0210175 0.0 
1.09016 0.16817 0.0 
0.948686 0.0243182 0.0 
0.99877 0.0174154 0.0 
1.14599 0.0584744 0.0 
1.16586 0.0395697 0.0 
0.998514 0.0166709 0.0 
0.930429 -0.0573161 0.0 
0.999125 0.0139945 0.0 
1.04318 -0.128172 0.0 
0.995113 0.0175588 0.0 
1.00021 0.0108342 0.0 
0.980861 0.028058 0.0 
0.988925 0.0279801 0.0 
0.996663 0.0211044 0.0 
0.991991 0.0297958 0.0 
0.882342 -0.105877 0.0 
1 0 0.0 
1 0 0.0 
1.03147 0.0457513 0.0 
0.995347 0.0237353 0.0 
0.250908 -0.00921982 0.0 
0.0626165 0.0118531 0.0 
1.11729 0.216708 0.0 
0.9588 -0.0455563 0.0 
1.20139 0.0758312 0.0 
1.14457 0.0625819 0.0 
0.994547 0.0182611 0.0 
1.14145 0.0706501 0.0 
0.991899 0.0242951 0.0 
0.948459 -0.164259 0.0 
1 0 0.0 
1.15729 0.0334349 0.0 
0.962024 0.189636 0.0 
0.992841 0.0228094 0.0 
1.1443 -0.0853415 0.0 
1.04506 0.0153471 0.0 
1.04545 0.0170581 0.0 
0.982978 0.0287119 0.0 
0.995387 0.0111733 0.0 
1.12876 0.231996 0.0 
1.11867 0.0902147 0.0 
0.9943 0.0193037 0.0 
0.16881 0.00192946 0.0 
0.958582 0.000950772 0.0 
0.992155 0.0119583 0.0 
0.995317 0.0118775 0.0 
0.381221 -0.00142657 0.0 
0.985622 0.0229401 0.0 
0.948575 -0.0295074 0.0 
0.953724 -0.00704256 0.0 
0.0983633 -0.0103271 0.0 
1 0 0.0 
1.06887 0 0.0 
1.00815 0.165771 0.0 
1.12034 -0.146219 0.0 
0.932202 0.0355497 0.0 
1.11332 -0.13029 0.0 
0.345342 -0.00251507 0.0 
0.080565 -0.00316804 0.0 
0.989708 0.0126804 0.0 
0.985754 0.0214646 0.0 
0.987523 0.0157951 0.0 
0.991725 0.0140967 0.0 
1.10854 -0.173561 0.0 
1.06823 -0.0102979 0.0 
1.08015 0.146581 0.0 
1.12159 0.0831168 0.0 
0.244656 -0.00379044 0.0 
0.956926 0.0788175 0.0 
1.00064 0.0198929 0.0 
1.11164 0.256884 0.0 
0.972396 0.0322249 0.0 
1.06738 -0.014191 0.0 
0.959461 0.0375513 0.0 
1.06738 -0.00708734 0.0 
0.505418 -0.0131566 0.0 
0.0807878 0.00784875 0.0 
0.0580849 0.0181431 0.0 
0.304159 -0.00814864 0.0 
0.999833 0.01207 0.0 
0.0847234 0.00176237 0.0 
1.06058 -0.00155917 0.0 
1.1601 -0.0431523 0.0 
1.0686 -0.00467275 0.0 
1 0 0.0 
0.999817 0.0156461 0.0 
1.06671 0.0011568 0.0 
0.979251 0.031631 0.0 
0.102996 0.00812478 0.0 
1.06048 0.00547078 0.0 
0.0777314 -0.0010358 0.0 
1.05792 0.013147 0.0 
0.92054 0.027763 0.0 
1.04384 0.00105774 0.0 
0.95755 0.0579401 0.0 
1 0.0208895 0.0 
1.19611 -0.110261 0.0 
0.700436 -0.0159938 0.0 
1.03566 -0.0309589 0.0 
1.04165 -0.0364804 0.0 
1.0685 -0.0449527 0.0 
1.05659 0.0102649 0.0 
1.06798 -0.012556 0.0 
1.18899 0.0202931 0.0 
1.04314 0.0147198 0.0 
1.2466 0.0805538 0.0 
1.03704 0.0320383 0.0 
1.00002 0.0166807 0.0 
1.17939 0.104746 0.0 
1.06536 -0.0193726 0.0 
0.971685 -0.0457205 0.0 
0.947991 0.0737918 0.0 
0.94441 0.037042 0.0 
1.01429 0.041225 0.0 
1.13404 -0.0022104 0.0 
0.929106 0.0324066 0.0 
1.007 -0.00620668 0.0 
1.06634 0 0.0 
1.06463 -0.00334051 0.0 
0.93405 0.0541129 0.0 
1.13998 -0.163792 0.0 
0.935935 0.160268 0.0 
1.10307 -0.19502 0.0 
0.952658 -0.0202678 0.0 
1.08802 0.250722 0.0 
0.98344 0.027024 0.0 
1.08781 0.104102 0.0 
0.790531 0.101577 0.0 
1.17652 0.105557 0.0 
0.499286 -0.00674749 0.0 
1.07654 0.186302 0.0 
1.00415 0.0209028 0.0 
1.05773 0.0160457 0.0 
1.04395 0.00956917 0.0 
1.04839 -0.000368271 0.0 
1.04697 0.000790004 0.0 
0.0765458 0.0165124 0.0 
1.0428 0.00285998 0.0 
-0.0378134 0.0264487 0.0 
1.07391 -0.047142 0.0 
1.00422 0.0345323 0.0 
1.04562 0.0101822 0.0 
1 0 0.0 
0.983422 0.0258656 0.0 
1.19456 0.0949146 0.0 
0.792859 -0.0453662 0.0 
0.999669 0.0150955 0.0 
0.991997 0.0385188 0.0 
1.05106 0.0108397 0.0 
1.05579 0.005821 0.0 
0.940152 0.188953 0.0 
0.781251 0.130663 0.0 
1.00447 0.0179401 0.0 
1.14162 0.126223 0.0 
1.00017 0.243247 0.0 
0.999172 0.0117749 0.0 
0.986096 0.0287654 0.0 
1.05211 0.00169275 0.0 
0.938142 0.124485 0.0 
0.183294 0.00612758 0.0 
1.05117 0.00387718 0.0 
0.173986 0.0991682 0.0 
1.05125 -0.000414625 0.0 
1.03301 -0.0175431 0.0 
1.01643 0.0463946 0.0 
1.12926 -0.0538186 0.0 
1.04792 0.00288917 0.0 
0.957213 -0.00643573 0.0 
0.351392 0.0135888 0.0 
1.06388 -0.0226972 0.0 
0.94678 -0.00164464 0.0 
0.999874 0.0147889 0.0 
1.06139 -0.0276482 0.0 
0.942028 0.0655002 0.0 
1.1985 -0.0457619 0.0 
0.279231 -0.021669 0.0 
0.632037 -0.0201598 0.0 
0.941301 -0.00482184 0.0 
0.96488 0.272334 0.0 
0.251321 0.0479388 0.0 
0.997165 0.315904 0.0 
0.955652 -0.00957799 0.0 
1.0799 -0.0431583 0.0 
0.724247 -0.000511023 0.0 
0.35747 0.116279 0.0 
1.10277 0.0695285 0.0 
0.998768 0.0118899 0.0 
0.576889 0.000926399 0.0 
0.167238 0.029203 0.0 
0.914654 -0.0435717 0.0 
0.787052 -0.0282404 0.0 
1.03426 0.0487775 0.0 
0.998824 0.0114983 0.0 
1.02674 -0.0979102 0.0 
1.11473 -0.0347788 0.0 
1.17484 0.0226928 0.0 
0.0805747 0.000862399 0.0 
0.936526 -0.0577772 0.0 
1.03503 0.0442805 0.0 
1.06825 -0.00821721 0.0 
0.93828 -0.00920588 0.0 
0.0745998 0.00796049 0.0 
0.998857 0.0124079 0.0 
1.17355 0.0276064 0.0 
1.05967 -0.0268305 0.0 
0.964106 0.216032 0.0 
1.05353 0.0186086 0.0 
1.06998 0.000144395 0.0 
1.0702 0.0049731 0.0 
0.954716 0.0373204 0.0 
1.06168 -0.0246123 0.0 
0.998992 0.0135683 0.0 
0.952412 0.00682994 0.0 
1.13859 -0.0338149 0.0 
1.05728 0.0199937 0.0 
0.989427 0.00710409 0.0 
0.953595 0.0150813 0.0 
0.999034 0.0137488 0.0 
1.06027 0.00486874 0.0 
1.04251 -0.00435859 0.0 
1.06152 -0.0218367 0.0 
0.990588 0.00873733 0.0 
1.02435 0.0495336 0.0 
0.998927 0.013037 0.0 
1.04523 -0.0263455 0.0 
1.06798 0.019317 0.0 
0.0503658 0.0170264 0.0 
0.0560925 0.0117773 0.0 
1.07085 0.0153528 0.0 
0.905523 -0.0566104 0.0 
0.888422 -0.0479649 0.0 
0.881017 0.120581 0.0 
0.999485 0.0136747 0.0 
0.99892 0.0136755 0.0 
0.962985 -0.0133861 0.0 
0.965138 -0.00219852 0.0 
1.03613 0.0284843 0.0 
0.964085 0.234917 0.0 
1.06764 0.151922 0.0 
1.03057 -0.0441911 0.0 
0.064147 -0.000250195 0.0 
1.16174 0.0229531 0.0 
1.09344 0.145517 0.0 
0.998772 0.0132083 0.0 
1.01765 0.038551 0.0 
1.1126 -0.00826721 0.0 
0.982928 0.0206724 0.0 
0.934716 0.0462408 0.0 
1.03081 -0.0289505 0.0 
0.973518 0.0371112 0.0 
0.94147 0.108869 0.0 
0.934393 0.058771 0.0 
0.834533 -0.0425749 0.0 
0.963032 0.00687665 0.0 
0.788339 -0.0481152 0.0 
1.00111 0.0178057 0.0 
1.03128 0.0422993 0.0 
0.954001 -0.010421 0.0 
0.961728 -0.0012474 0.0 
0.922852 0.0340289 0.0 
1.10132 0.249125 0.0 
0.972465 0.00583754 0.0 
0.942462 0.291879 0.0 
0.945606 0.0325697 0.0 
0.975538 0.22644 0.0 
0.850011 0.286054 0.0 
0.995234 0.00732517 0.0 
1.00075 0 0.0 
0.998864 0.0118944 0.0 
0.977386 0.00131282 0.0 
0.894449 0.15418 0.0 
0.134867 0.00867206 0.0 
1.01087 0.0427876 0.0 
0.980868 0.00690453 0.0 
0.999437 0.0122866 0.0 
0.915981 -0.0720198 0.0 
0.916873 0.0328292 0.0 
1.19673 -0.0344374 0.0 
0.998761 0.0121555 0.0 
0.952487 0.0731203 0.0 
0.772543 -0.082991 0.0 
1.03372 -0.0229376 0.0 
0.936454 0.063505 0.0 
0.995376 0.0159299 0.0 
0.944638 0.0273304 0.0 
0.991172 0.0197409 0.0 
0.0811443 0.0125011 0.0 
0.765557 -0.0735238 0.0 
1.0448 -0.00197601 0.0 
1.15765 0.0810936 0.0 
1.1503 -0.032348 0.0 
0.997742 0.0104865 0.0 
0.982338 0.0183202 0.0 
1.00442 0.202358 0.0 
1.11479 0.157839 0.0 
0.582827 0.0957841 0.0 
0.951463 0.189136 0.0 
0.981716 0.0186872 0.0 
0.299061 -0.0334813 0.0 
0.98272 0.0215896 0.0 
0.997356 0.0125102 0.0 
1.00044 0.019265 0.0 
0.245446 -0.0283465 0.0 
0.201247 -0.0196044 0.0 
0.981942 0.0298151 0.0 
0.337592 0.0582621 0.0 
1.19334 0.09069 0.0 
1.0101 0.0422879 0.0 
0.981112 0.032073 0.0 
0.999795 0.0191803 0.0 
0.97804 0.010982 0.0 
0.930557 0.0685692 0.0 
0.97673 0.0254843 0.0 
0.852326 0.285178 0.0 
0.496736 -0.0371834 0.0 
0.225346 -0.0192559 0.0 
0.968347 0.0132726 0.0 
0.974927 0.011891 0.0 
1.05476 0.204825 0.0 
0.310103 -0.034549 0.0 
0.940082 0.0207977 0.0 
1.03397 -0.0385748 0.0 
0.983377 0.245904 0.0 
0.999335 0.01332 0.0 
0.922814 0.08171 0.0 
0.972556 0.0307361 0.0 
0.93045 0.143274 0.0 
0.959378 0.15677 0.0 
1.00921 0.255336 0.0 
0.727535 -0.0320574 0.0 
0.937519 -0.0525235 0.0 
1.11894 0.057836 0.0 
0.468681 0.0937571 0.0 
0.926636 -0.0598416 0.0 
0.11129 0.00246732 0.0 
0.899223 -0.0130214 0.0 
0.748725 0.136264 0.0 
0.915319 -0.0665986 0.0 
0.922394 -0.0563287 0.0 
0.614467 0.165261 0.0 
1.04777 0.00797694 0.0 
0.941223 0.173415 0.0 
0.879886 -0.00506353 0.0 
0.928521 -0.0539127 0.0 
1.04149 -0.00458237 0.0 
0.339999 0.0416357 0.0 
1.03812 -0.00793465 0.0 
0.86634 0.00727509 0.0 
0.897444 0.217459 0.0 
1.05051 -0.000155409 0.0 
0.906891 -0.0882675 0.0 
0.921446 0.183162 0.0 
0.291154 -0.0359143 0.0 
1.13232 0.0605929 0.0 
1.03461 0.170686 0.0 
0.831255 0.380914 0.0 
1.10263 0.16508 0.0 
1.06428 0.260072 0.0 
0.964501 -0.0448837 0.0 
0.733431 -0.0978876 0.0 
0.977841 0.0330764 0.0 
0.521753 0.0624369 0.0 
0.918617 -0.0528229 0.0 
1.0526 0.0694505 0.0 
0.18324 -0.00309997 0.0 
1.04425 0.263817 0.0 
1.06194 0.0423347 0.0 
0.879311 0.10524 0.0 
1.0052 0.0214049 0.0 
0.893045 0.0668575 0.0 
0.136628 0.00646988 0.0 
0.853593 0.0763454 0.0 
0.949636 0.0366773 0.0 
0.947519 0.00368879 0.0 
1.17473 -0.0395231 0.0 
0.763703 0.335447 0.0 
0.847955 0.0890734 0.0 
1.02909 0.0724819 0.0 
1.08268 -0.0954417 0.0 
0.921257 -0.0470575 0.0 
1.04004 0.272081 0.0 
0.964885 0.0166661 0.0 
0.995881 0.0398675 0.0 
0.910547 0.0769219 0.0 
0.924878 0.112587 0.0 
0.910946 0.0352833 0.0 
1.00923 0.0269953 0.0 
0.920113 0.105894 0.0 
0.917725 0.220906 0.0 
0.999258 0.0124245 0.0 
1.09267 -0.0710468 0.0 
0.307499 -0.0389117 0.0 
1.05386 0.251437 0.0 
0.966489 0.203109 0.0 
0.807439 0.151242 0.0 
0.827214 0.0381172 0.0 
0.886573 0.0297184 0.0 
1.04236 0.305372 0.0 
0.999655 0.0170423 0.0 
1.12538 0.140168 0.0 
1.03345 0.226578 0.0 
0.886523 -0.0484726 0.0 
0.92315 -0.00209901 0.0 
0.858683 0.158416 0.0 
0.911213 0.020508 0.0 
0.885445 0.0147231 0.0 
0.932523 -0.0462385 0.0 
0.934481 0.20731 0.0 
0.995823 0.0299566 0.0 
0.999648 0.0145669 0.0 
0.111145 0.00815387 0.0 
0.0976499 0.0112103 0.0 
0.91317 0.027621 0.0 
0.526526 0.153705 0.0 
1.03945 -0.00640401 0.0 
0.921866 -0.0165435 0.0 
0.978085 -0.00116947 0.0 
0.902908 0.0763962 0.0 
0.842109 0.0065899 0.0 
1.08268 -0.067433 0.0 
0.955229 0.00778579 0.0 
0.97563 0.00890159 0.0 
1.0845 0.267947 0.0 
0.225654 -0.0215493 0.0 
0.930897 0.300335 0.0 
0.973115 0.00244409 0.0 
0.989164 0.053786 0.0 
1.06932 -0.229449 0.0 
0.969105 0.0044851 0.0 
0.961871 0.0123558 0.0 
0.997762 0.0130572 0.0 
1.03857 -0.00768492 0.0 
0.797808 0.108961 0.0 
0.90473 0.018251 0.0 
0.990962 0.00522688 0.0 
1.02894 -0.182864 0.0 
0.995249 0.0152167 0.0 
0.935712 0.023943 0.0 
0.810713 0.16839 0.0 
0.950196 -0.00867536 0.0 
0.998148 0.00997668 0.0 
0.938957 0.00453936 0.0 
0.188664 0.128498 0.0 
0.944054 -0.0085831 0.0 
1.06627 -0.0095921 0.0 
0.954224 0.288796 0.0 
0.069561 0.0131001 0.0 
1.10169 0.255279 0.0 
0.988057 0.0146594 0.0 
0.924683 -0.130741 0.0 
0.968997 0.00165425 0.0 
0.959788 0.00894937 0.0 
0.960036 0.004352 0.0 
0.543837 0.134854 0.0 
0.962069 0.00167298 0.0 
0.956181 -0.0137521 0.0 
0.652139 0.184281 0.0 
1.03519 -0.0115025 0.0 
1.03477 0.0446765 0.0 
0.997097 0.266107 0.0 
0.981168 0.020595 0.0 
0.975647 0.0287773 0.0 
0.964826 0.00374698 0.0 
0.893742 0.0127781 0.0 
0.959124 -0.0180434 0.0 
0.118193 0.00135246 0.0 
0.968857 -0.000408519 0.0 
1.06238 0.0169421 0.0 
0.876547 0.167992 0.0 
0.996524 0.0118653 0.0 
1.06815 0.0281322 0.0 
1.05799 0.0948398 0.0 
1.10303 -0.0711955 0.0 
1.09706 0.104811 0.0 
0.976649 -0.00313291 0.0 
0.877203 0.182958 0.0 
0.996698 0.0142477 0.0 
0.996993 0.0109554 0.0 
0.89004 -0.0413515 0.0 
0.978864 0.0255479 0.0 
1.16445 -0.227188 0.0 
0.672529 0.0145098 0.0 
0.942266 0.0413732 0.0 
1.01775 0.302758 0.0 
0.908389 0.353318 0.0 
0.839443 0.132032 0.0 
1.16047 0.0753241 0.0 
0.153978 0.13405 0.0 
1.01853 0.289738 0.0 
1.06666 0.266032 0.0 
1.0403 -0.00479221 0.0 
0.939139 0.0940639 0.0 
0.0483072 0.0075533 0.0 
1.17683 0.147576 0.0 
0.977987 0.0316264 0.0 
0.910363 0.121931 0.0 
1.12715 0.220063 0.0 
0.85179 0.124205 0.0 
-0.0411319 -0.0173663 0.0 
0.979071 0.0297583 0.0 
0.925425 0.0734538 0.0 
0.745368 0.140704 0.0 
0.979901 0.026506 0.0 
0.912163 0.150036 0.0 
0.995935 0.0123385 0.0 
0.903483 0.101335 0.0 
0.979396 0.0276745 0.0 
0.854308 0.0555054 0.0 
0.831369 0.0223531 0.0 
0.904643 0.164119 0.0 
0.998806 0.01119 0.0 
0.969065 -0.00487419 0.0 
0.980357 0.024851 0.0 
0.999178 0.017327 0.0 
0.962934 -0.00490886 0.0 
0.961914 -0.00857697 0.0 
0.966376 -0.00436394 0.0 
0.938494 -0.0416162 0.0 
0.926186 0.0579365 0.0 
0.926817 0.0879359 0.0 
1.0426 -0.000176396 0.0 
0.989917 0.0317369 0.0 
1.06707 0.0291279 0.0 
0.999273 0.0142473 0.0 
1.07984 -0.00687422 0.0 
1.00571 0.0795894 0.0 
0.949937 0.0130942 0.0 
0.977126 0.0268549 0.0 
1.05055 -0.161148 0.0 
1.10177 0.243278 0.0 
1.12503 0.231472 0.0 
0.93357 -0.032366 0.0 
0.999165 0.0137821 0.0 
0.951426 0.0107499 0.0 
0.996441 0.0134078 0.0 
0.979658 0.00518537 0.0 
1.05761 0.0100974 0.0 
1.04941 -0.171872 0.0 
0.0679415 0.00363674 0.0 