<VTKFile type="UnstructuredGrid" version="0.1" byte_order="LittleEndian">
  <UnstructuredGrid>
    <Piece NumberOfPoints="9712" NumberOfCells="19403">
      <Points>
        <DataArray type = "Float64" NumberOfComponents="3" format="ascii">
-5 -7 0.0 
15.5 -7 0.0 
15.5 7 0.0 
-5 7 0.0 
-1.6546 1.77742 0.0 
-2.13867 1.86504 0.0 
-1.83467 1.79143 0.0 
1.47969 -2.21179 0.0 
1.36003 -2.38618 0.0 
1.4346 -2.45048 0.0 
-2.04214 1.94165 0.0 
-0.20425 1.17338 0.0 
-2.07648 1.81911 0.0 
-2.00827 1.89081 0.0 
-2.05492 1.98872 0.0 
0.192693 0.536219 0.0 
0.154285 1.75648 0.0 
1.1379 -1.62057 0.0 
-2.11226 1.96977 0.0 
-1.74119 1.75327 0.0 
1.14499 -1.58184 0.0 
-1.94373 2.37229 0.0 
1.50619 -0.664239 0.0 
1.99658 -1.76705 0.0 
1.7229 -1.18344 0.0 
-1.97759 2.52091 0.0 
-0.768046 0.387136 0.0 
1.32657 -1.43969 0.0 
1.90142 0.24821 0.0 
-0.93264 1.51038 0.0 
1.09557 0.967223 0.0 
0.627111 0.757352 0.0 
-2.05707 2.31394 0.0 
1.34027 -2.45136 0.0 
-0.725097 0.397516 0.0 
-0.666094 2.30428 0.0 
-0.73829 -0.279965 0.0 
1.73336 -1.08822 0.0 
1.88466 -1.24421 0.0 
1.50539 -1.23752 0.0 
1.65978 -1.30759 0.0 
-0.0409718 0.542603 0.0 
1.6005 -1.1227 0.0 
1.78439 -0.941488 0.0 
1.86015 -1.54236 0.0 
1.49308 -1.40058 0.0 
2.34892 -1.47149 0.0 
2.13832 -1.3246 0.0 
1.73061 0.751302 0.0 
-0.580328 0.526903 0.0 
1.51013 -2.1595 0.0 
-1.65424 3.45779 0.0 
-1.51397 2.46352 0.0 
1.42773 -2.17867 0.0 
0.304353 0.497878 0.0 
2.24628 0.228293 0.0 
1.51258 -2.27933 0.0 
-1.60346 3.44299 0.0 
-1.71408 2.36227 0.0 
2.17421 0.530405 0.0 
2.42 0.316451 0.0 
-1.63642 3.31911 0.0 
2.53942 -0.995036 0.0 
0.750003 0.810439 0.0 
2.04736 0.40918 0.0 
1.19615 -1.50641 0.0 
2.13474 0.494063 0.0 
0.547924 0.306722 0.0 
-0.2059 0.361394 0.0 
2.2127 0.547693 0.0 
1.41442 -0.597105 0.0 
1.52233 -1.46252 0.0 
-1.84114 2.53924 0.0 
-5 -2.53894 0.0 
2.32127 0.371156 0.0 
-1.69186 3.33379 0.0 
-0.964779 0.566136 0.0 
-1.81311 2.48387 0.0 
-1.78557 3.38304 0.0 
1.48278 0.914136 0.0 
2.51531 -1.89689 0.0 
1.20982 -0.330514 0.0 
0.408434 0.319657 0.0 
0.95023 0.60993 0.0 
-0.752349 0.440796 0.0 
-0.998248 0.564019 0.0 
-1.73165 3.36299 0.0 
1.24353 -1.49063 0.0 
0.942095 0.817189 0.0 
-1.77816 2.47096 0.0 
2.48183 -1.95479 0.0 
1.33574 -1.77854 0.0 
0.823335 1.12085 0.0 
-0.36308 0.598468 0.0 
0.745466 0.783414 0.0 
-1.88344 2.8521 0.0 
-1.79794 3.52221 0.0 
3.0087 0.272815 0.0 
-1.81486 2.66014 0.0 
0.375911 -0.403668 0.0 
-0.68323 0.487288 0.0 
-0.34187 -0.274923 0.0 
-0.293875 -0.201368 0.0 
1.61018 -1.767 0.0 
-0.448275 -0.347267 0.0 
-1.08687 0.352015 0.0 
1.29257 -1.76345 0.0 
1.67658 -1.49551 0.0 
1.19193 0.533009 0.0 
1.21582 -1.91654 0.0 
-0.36438 -0.346225 0.0 
-0.92534 0.330346 0.0 
2.3836 0.287756 0.0 
1.68841 0.639887 0.0 
1.59001 -1.89458 0.0 
1.14818 -1.92143 0.0 
1.28996 -2.19426 0.0 
1.37603 -1.8763 0.0 
1.23834 -2.09141 0.0 
1.11702 -2.06287 0.0 
0.691829 0.463808 0.0 
1.46523 -2.03459 0.0 
-0.123547 0.424486 0.0 
-1.3311 2.12174 0.0 
1.08169 -1.90074 0.0 
1.87975 -2.15971 0.0 
1.10131 -1.78593 0.0 
1.13722 0.534683 0.0 
1.42465 -1.59031 0.0 
-1.45435 2.47344 0.0 
1.41998 -1.98207 0.0 
0.463917 1.8787 0.0 
-1.72896 2.89571 0.0 
1.12419 -1.84975 0.0 
1.59054 -1.20634 0.0 
0.46124 0.621002 0.0 
0.806438 -1.00204 0.0 
2.1804 0.349761 0.0 
2.21142 -1.6418 0.0 
1.10152 -0.274558 0.0 
2.23388 0.387302 0.0 
0.137769 0.567007 0.0 
1.88736 0.267391 0.0 
1.26821 -1.94267 0.0 
0.21033 -0.605707 0.0 
2.61094 -1.50046 0.0 
0.819837 0.743337 0.0 
-1.4303 2.07799 0.0 
1.82013 0.322126 0.0 
-1.47649 2.2099 0.0 
1.15745 -0.274223 0.0 
-1.81198 2.24994 0.0 
2.34337 -1.67775 0.0 
-1.13329 1.37877 0.0 
-0.828215 1.05292 0.0 
2.46752 -1.53452 0.0 
-1.69915 2.18529 0.0 
-0.404416 -0.286271 0.0 
-1.23501 1.31766 0.0 
2.11757 -1.50659 0.0 
-1.08535 1.28274 0.0 
2.58548 -1.70783 0.0 
0.24729 -0.572345 0.0 
-1.66963 2.25319 0.0 
1.58322 -1.62308 0.0 
-0.367923 -0.306026 0.0 
0.391521 1.44485 0.0 
1.88977 -2.46319 0.0 
1.5943 -1.53613 0.0 
-0.357143 -0.23651 0.0 
0.82621 0.80563 0.0 
-1.59261 2.31884 0.0 
-0.47244 -0.307516 0.0 
-0.40334 -0.326688 0.0 
-2.00063 2.11543 0.0 
1.55514 -1.95078 0.0 
-1.40431 2.26352 0.0 
-0.0265928 0.573714 0.0 
1.17093 1.10579 0.0 
-1.77907 2.22111 0.0 
0.682788 0.329642 0.0 
-0.54475 2.15572 0.0 
-0.288592 0.289433 0.0 
-1.43199 2.16349 0.0 
-1.45029 2.25134 0.0 
1.5535 -1.79992 0.0 
-1.06406 1.08381 0.0 
1.72954 1.44966 0.0 
0.582806 0.515814 0.0 
0.582876 -0.679913 0.0 
1.32351 -0.355916 0.0 
-0.47505 0.577092 0.0 
-0.371167 0.227715 0.0 
1.52235 -1.8529 0.0 
-0.429822 -0.244811 0.0 
-0.53237 -0.24648 0.0 
-0.393983 -0.210364 0.0 
0.652895 0.317361 0.0 
1.55812 -1.70765 0.0 
1.63021 0.325622 0.0 
0.442731 0.358729 0.0 
1.22925 -1.85192 0.0 
1.43517 -1.79082 0.0 
1.39317 -1.6984 0.0 
1.62965 0.295952 0.0 
0.905462 0.793465 0.0 
1.04036 -1.64811 0.0 
2.1131 -1.72466 0.0 
-0.743911 0.369492 0.0 
1.14427 -1.99314 0.0 
1.26033 -2.0209 0.0 
-1.70955 2.07308 0.0 
0.910023 -1.62976 0.0 
-0.313059 -0.0954838 0.0 
-1.77334 2.3988 0.0 
-0.311958 -0.24042 0.0 
2.53315 0.325608 0.0 
-0.273728 -0.226719 0.0 
-0.646401 0.379627 0.0 
1.52426 0.616074 0.0 
2.21703 -1.79499 0.0 
2.71108 0.312216 0.0 
0.759924 1.093 0.0 
-1.69271 2.12368 0.0 
0.255794 0.540969 0.0 
0.0534699 0.562158 0.0 
-1.5679 2.22408 0.0 
-1.66906 2.45165 0.0 
-1.51895 2.09449 0.0 
2.16948 0.408238 0.0 
-0.818806 0.680638 0.0 
-0.826868 0.642087 0.0 
0.519855 0.276992 0.0 
-0.716682 1.18602 0.0 
-0.649974 -0.148775 0.0 
0.457368 0.256619 0.0 
0.517407 0.248194 0.0 
0.327129 0.39802 0.0 
0.533249 -0.878832 0.0 
-0.870735 0.634904 0.0 
1.19219 1.07557 0.0 
2.35922 0.366028 0.0 
-1.66911 3.66723 0.0 
-0.857603 1.54934 0.0 
-0.379189 2.30131 0.0 
-0.941007 1.36523 0.0 
-1.58662 2.49682 0.0 
-0.545297 0.352587 0.0 
0.327944 -0.744683 0.0 
-0.312756 0.524741 0.0 
-0.107843 0.506233 0.0 
2.13378 -2.36584 0.0 
1.52689 0.686953 0.0 
-0.119983 0.327909 0.0 
1.02161 -1.53072 0.0 
1.51507 0.39695 0.0 
-0.674484 1.02605 0.0 
-0.564724 -0.148435 0.0 
0.409388 0.290913 0.0 
0.252349 0.30842 0.0 
-1.09282 1.45998 0.0 
1.45674 -1.54484 0.0 
-0.266777 0.782169 0.0 
0.91327 -0.874389 0.0 
1.01208 1.13309 0.0 
-0.897136 1.35063 0.0 
-0.846484 0.489353 0.0 
1.47563 0.663768 0.0 
-1.22282 2.05021 0.0 
0.348906 0.416714 0.0 
1.41913 0.964648 0.0 
0.933289 -0.839038 0.0 
-1.85066 1.40221 0.0 
0.142477 1.99435 0.0 
-0.717809 0.341194 0.0 
-2.21177 1.41584 0.0 
0.396571 0.350929 0.0 
1.25171 -1.60721 0.0 
0.736798 0.393502 0.0 
-0.661427 0.19031 0.0 
2.18751 -2.32769 0.0 
-1.00908 1.6747 0.0 
2.21416 -2.07269 0.0 
-0.779194 0.642011 0.0 
-1.02312 1.3939 0.0 
2.08809 -2.24876 0.0 
-5 -4.48794 0.0 
1.61792 -1.46215 0.0 
-0.974627 1.38947 0.0 
1.81166 -2.48446 0.0 
-1.03635 1.47474 0.0 
0.869004 -1.74424 0.0 
0.956579 -1.78598 0.0 
1.07495 0.540689 0.0 
-1.08005 1.37763 0.0 
0.914755 -0.803058 0.0 
0.611759 -0.305322 0.0 
1.70043 -1.41356 0.0 
0.75708 -0.631542 0.0 
1.21215 1.01979 0.0 
-0.586902 0.440014 0.0 
1.9251 -2.56336 0.0 
-1.58261 1.91091 0.0 
-0.746541 1.26087 0.0 
-1.49915 1.13657 0.0 
-1.46675 0.971536 0.0 
-1.05881 0.930935 0.0 
0.71826 0.415078 0.0 
-0.701697 0.526982 0.0 
-1.56194 2.05157 0.0 
1.15988 0.991244 0.0 
1.38676 0.949615 0.0 
-1.61697 2.02689 0.0 
1.13748 -0.357331 0.0 
-1.8456 2.04561 0.0 
0.253686 -0.756334 0.0 
-1.53603 1.86509 0.0 
-1.43465 0.924137 0.0 
-1.00273 1.27416 0.0 
-1.03063 1.5132 0.0 
-1.32483 1.94769 0.0 
-0.965552 1.61445 0.0 
-0.239859 -0.245939 0.0 
-5 3.01776 0.0 
-5 -0.248741 0.0 
0.517491 1.87079 0.0 
-1.18776 1.8875 0.0 
2.27458 0.36201 0.0 
1.9794 0.331487 0.0 
0.503086 0.510306 0.0 
1.26387 -0.370702 0.0 
1.24483 0.550197 0.0 
1.12871 0.979556 0.0 
-1.48659 1.83259 0.0 
1.0672 0.958366 0.0 
-1.16856 1.61214 0.0 
-0.218637 -0.230696 0.0 
-5 1.81431 0.0 
1.37014 1.04658 0.0 
0.0950623 0.557621 0.0 
-1.23613 1.67303 0.0 
0.953731 -0.709843 0.0 
2.07568 -1.85385 0.0 
2.10836 -1.82014 0.0 
-0.994952 1.33552 0.0 
-1.86986 1.52312 0.0 
0.515812 0.447542 0.0 
0.842446 0.992035 0.0 
-1.42353 1.8223 0.0 
2.091 0.354014 0.0 
-0.937663 0.401428 0.0 
-1.69305 1.41997 0.0 
-1.82465 1.55127 0.0 
2.15192 0.384657 0.0 
-1.17972 1.37998 0.0 
-0.718866 -0.0130647 0.0 
-0.927867 0.290435 0.0 
1.56509 0.300406 0.0 
-5 -3.04052 0.0 
9.98027 -7 0.0 
0.176009 0.694641 0.0 
0.597997 -0.559941 0.0 
-0.546583 0.4849 0.0 
0.602022 -0.657834 0.0 
2.17737 0.379672 0.0 
1.89809 0.287017 0.0 
-1.58883 1.35796 0.0 
-1.2284 1.37063 0.0 
-1.43937 1.35342 0.0 
-1.59664 1.47263 0.0 
0.577431 -0.368705 0.0 
1.5263 -1.51093 0.0 
0.479666 0.796509 0.0 
0.894995 1.01463 0.0 
2.22312 0.363016 0.0 
-0.320562 0.726481 0.0 
-1.30188 2.41386 0.0 
0.43802 0.434693 0.0 
-0.761697 0.762024 0.0 
1.45688 -1.49591 0.0 
-0.65072 0.676835 0.0 
1.6097 -1.41509 0.0 
2.25768 0.399237 0.0 
1.85518 0.299709 0.0 
2.14618 0.290757 0.0 
2.25222 0.371677 0.0 
-1.93063 2.91367 0.0 
1.52717 0.319618 0.0 
1.67964 -1.62237 0.0 
1.35962 -0.439169 0.0 
1.63007 -1.54335 0.0 
-5 -0.764504 0.0 
-1.61377 2.62271 0.0 
1.73865 -1.57725 0.0 
-0.908306 1.23669 0.0 
1.60766 0.330292 0.0 
1.82509 -1.63054 0.0 
1.90521 0.312457 0.0 
1.98719 -1.6488 0.0 
-0.528791 0.39225 0.0 
1.94978 -2.39003 0.0 
-0.472559 0.718465 0.0 
-1.28058 2.26572 0.0 
0.881581 -0.556282 0.0 
2.26369 0.42542 0.0 
0.917309 -1.69962 0.0 
0.853954 -1.60945 0.0 
1.30086 -0.404316 0.0 
1.99565 -2.46852 0.0 
1.49445 -1.47573 0.0 
1.68285 0.863315 0.0 
2.03074 -2.37549 0.0 
2.52279 -0.506167 0.0 
2.56049 -1.76899 0.0 
-1.52889 2.56597 0.0 
2.81136 -0.570221 0.0 
1.3688 -1.46095 0.0 
1.29524 -0.373946 0.0 
-0.350504 0.671928 0.0 
-0.590282 0.564035 0.0 
-0.054366 2.16706 0.0 
1.50819 1.22548 0.0 
-0.548222 0.453941 0.0 
2.19936 -2.5207 0.0 
12.2704 -7 0.0 
1.6811 -1.36761 0.0 
-0.449261 0.559535 0.0 
0.537017 -0.527614 0.0 
-0.00733391 0.553304 0.0 
0.494109 -0.356396 0.0 
-0.7939 0.0827441 0.0 
0.39888 0.467333 0.0 
-1.04288 1.34095 0.0 
0.605019 1.02824 0.0 
0.847559 0.374727 0.0 
1.00336 0.618307 0.0 
2.1955 0.399186 0.0 
0.656973 0.401158 0.0 
-0.998431 2.73564 0.0 
[...]
<PointData>
  <DataArray type = "Float64" Name="VitesseP1" NumberOfComponents="3" format="ascii">
1 0 0.0 
1.09035 0 0.0 
1.03513 0 0.0 
1 0 0.0 
0.994681 0.0155498 0.0 
0.996951 0.0109153 0.0 
0.995549 0.0133727 0.0 
1.04299 -0.00308145 0.0 
1.04492 -0.00411363 0.0 
1.05054 -0.00354249 0.0 
0.997789 0.0118318 0.0 
0.986728 0.0723232 0.0 
0.996647 0.0112442 0.0 
0.996861 0.0120231 0.0 
0.998934 0.0118325 0.0 
0.992502 0.217895 0.0 
1.0199 0.0531918 0.0 
1.04998 -0.0256467 0.0 
0.998857 0.0112603 0.0 
0.995086 0.0142938 0.0 
1.0554 -0.0266184 0.0 
0.998913 0.0131253 0.0 
1.16099 -0.0262264 0.0 
1.04725 0.0127259 0.0 
1.06496 -0.00186456 0.0 
0.998888 0.0127024 0.0 
0.944633 0.00855613 0.0 
1.06407 -0.0217183 0.0 
0.0659861 -0.00344569 0.0 
0.988897 0.0311083 0.0 
1.14299 0.0670935 0.0 
1.11026 0.141802 0.0 
0.998896 0.012146 0.0 
1.0347 -0.0172608 0.0 
0.941479 0.0121408 0.0 
1.00558 0.0300108 0.0 
0.937023 -0.0514178 0.0 
1.086 -0.00175584 0.0 
1.05798 0.0089161 0.0 
1.05522 -0.0154585 0.0 
1.05824 -0.0048517 0.0 
0.927067 0.151402 0.0 
1.07633 -0.0110578 0.0 
1.12771 0.00150344 0.0 
1.06947 0.00743574 0.0 
1.06467 -0.013513 0.0 
1.06518 0.0350706 0.0 
1.05926 0.0246457 0.0 
1.20044 0.0272482 0.0 
0.939647 0.0354544 0.0 
1.04171 -0.00308033 0.0 
1.00247 0.0120127 0.0 
0.999902 0.0172212 0.0 
1.04112 -0.00468409 0.0 
1.03796 0.242914 0.0 
0.0326482 0.00905196 0.0 
1.04476 -0.002003 0.0 
1.00269 0.0123973 0.0 
0.999155 0.0153558 0.0 
1.16347 0.000249214 0.0 
0.135851 -0.00346927 0.0 
1.00241 0.0126614 0.0 
1.09802 0.0602001 0.0 
1.12318 0.120258 0.0 
0.555039 0.00299647 0.0 
1.06161 -0.026567 0.0 
1.06872 0.00230686 0.0 
0.556975 0.134624 0.0 
0.862915 0.0852814 0.0 
1.18563 -0.0045176 0.0 
1.20319 -0.0379581 0.0 
1.06806 -0.0110812 0.0 
0.99911 0.0138233 0.0 
1 0 0.0 
0.292827 -0.0112249 0.0 
1.00218 0.0122581 0.0 
0.968188 0.0104366 0.0 
0.999131 0.0141792 0.0 
1.00178 0.0114745 0.0 
1.17444 0.0343822 0.0 
1.03876 0.0251236 0.0 
0.752721 -0.0405123 0.0 
0.948981 0.262913 0.0 
1.17377 0.114647 0.0 
0.946267 0.0140844 0.0 
0.969998 0.0087362 0.0 
1.00208 0.0118884 0.0 
1.06301 -0.0247768 0.0 
1.14398 0.0968762 0.0 
0.999198 0.0145244 0.0 
1.04517 0.0294604 0.0 
1.04282 -0.0139999 0.0 
1.09703 0.0789125 0.0 
0.935627 0.0698497 0.0 
1.12552 0.124412 0.0 
0.99995 0.0126045 0.0 
1.00217 0.0107158 0.0 
0.0193331 -0.149437 0.0 
0.99931 0.0137447 0.0 
1.19168 -0.234517 0.0 
0.944165 0.0228445 0.0 
0.918959 -0.0884796 0.0 
0.915749 -0.0746106 0.0 
1.04728 -0.00341674 0.0 
0.924566 -0.0783662 0.0 
0.967244 -0.00827179 0.0 
1.04248 -0.0159733 0.0 
1.06989 -0.00243839 0.0 
1.19714 0.0825858 0.0 
1.0382 -0.0154902 0.0 
0.920289 -0.0887191 0.0 
0.954945 -0.00377781 0.0 
0.0822431 0.00616368 0.0 
1.20308 0.0336212 0.0 
1.04439 -0.00320368 0.0 
1.03662 -0.0173497 0.0 
1.03868 -0.00734097 0.0 
1.04208 -0.0108683 0.0 
1.03592 -0.0112307 0.0 
1.03291 -0.0162873 0.0 
1.1642 0.183854 0.0 
1.03966 -0.00567594 0.0 
0.87746 0.125823 0.0 
0.999158 0.0207164 0.0 
1.03546 -0.0199296 0.0 
1.0419 0.0059827 0.0 
1.03761 -0.0223297 0.0 
1.19662 0.0901417 0.0 
1.06168 -0.0140065 0.0 
1.00016 0.0178385 0.0 
1.03962 -0.00779949 0.0 
1.02959 0.0465736 0.0 
1.00078 0.0136186 0.0 
1.03728 -0.0199598 0.0 
1.05987 -0.0104215 0.0 
1.08782 0.188808 0.0 
1.06901 -0.073095 0.0 
0.150676 0.00542668 0.0 
1.05524 0.0238414 0.0 
0.456514 -0.0390371 0.0 
0.391082 -0.00573154 0.0 
0.97789 0.19631 0.0 
0.071721 -0.011015 0.0 
1.03829 -0.0132895 0.0 
1.03106 -0.160559 0.0 
1.05336 0.0510613 0.0 
1.13979 0.1202 0.0 
0.99885 0.0193382 0.0 
0.0809537 -3.88667e-05 0.0 
0.999034 0.0184082 0.0 
0.409632 -0.0167737 0.0 
0.998827 0.0144626 0.0 
1.04694 0.0287403 0.0 
0.985298 0.0243739 0.0 
0.973563 0.0341849 0.0 
1.05812 0.0397871 0.0 
0.998661 0.0157056 0.0 
0.92295 -0.0796166 0.0 
0.984298 0.0208025 0.0 
1.0687 0.0213886 0.0 
0.981737 0.0252354 0.0 
1.0344 0.035961 0.0 
1.0404 -0.171066 0.0 
0.998952 0.0159888 0.0 
1.05943 -0.00599821 0.0 
0.920377 -0.08599 0.0 
1.03452 0.0691856 0.0 
1.0487 -0.000846449 0.0 
1.06841 -0.0064099 0.0 
0.916605 -0.0818046 0.0 
1.13317 0.112042 0.0 
0.999274 0.0167588 0.0 
0.927834 -0.0728081 0.0 
0.922412 -0.0826832 0.0 
0.998669 0.0125485 0.0 
1.04209 -0.00395171 0.0 
0.999538 0.0192243 0.0 
0.939139 0.151345 0.0 
1.13084 0.0484212 0.0 
0.998769 0.0148189 0.0 
0.633948 0.110619 0.0 
1.00621 0.034106 0.0 
0.863477 0.0452506 0.0 
0.998989 0.0191254 0.0 
0.999339 0.0186487 0.0 
1.04554 -0.00538607 0.0 
0.974103 0.0237433 0.0 
1.0713 -0.0391742 0.0 
1.14173 0.199421 0.0 
1.10928 -0.128893 0.0 
0.870716 -0.0306419 0.0 
0.938323 0.0516927 0.0 
0.875155 0.0162202 0.0 
1.04449 -0.00602916 0.0 
0.924192 -0.073185 0.0 
0.933302 -0.0626646 0.0 
0.918918 -0.0743385 0.0 
0.581401 0.110873 0.0 
1.05057 -0.00620674 0.0 
0.112537 0.0165036 0.0 
1.0374 0.264833 0.0 
1.03966 -0.0164094 0.0 
1.04429 -0.010075 0.0 
1.04903 -0.0133939 0.0 
0.0916909 0.0259434 0.0 
1.14318 0.103593 0.0 
1.04402 -0.0285692 0.0 
1.04829 0.0180617 0.0 
0.941528 0.0083928 0.0 
1.03417 -0.0162209 0.0 
1.03625 -0.0119418 0.0 
0.998779 0.0155955 0.0 
1.04115 -0.0338725 0.0 
0.898693 -0.0656289 0.0 
0.999121 0.0146967 0.0 
0.909847 -0.0858278 0.0 
0.200132 -0.0161757 0.0 
0.887977 -0.0840276 0.0 
0.932729 0.0159044 0.0 
1.20181 0.0453006 0.0 
1.04427 0.0215724 0.0 
0.273526 -0.0349459 0.0 
1.09645 0.0865497 0.0 
0.998606 0.0157934 0.0 
1.01923 0.222815 0.0 
0.951712 0.177077 0.0 
0.998959 0.0172237 0.0 
0.99941 0.015625 0.0 
0.998812 0.0180487 0.0 
0.545306 -0.00187373 0.0 
0.967759 0.0248921 0.0 
0.965461 0.0224034 0.0 
0.414183 0.135742 0.0 
0.976668 0.0406133 0.0 
0.94027 -0.0445226 0.0 
0.301369 0.101484 0.0 
0.375076 0.18439 0.0 
1.06345 0.296659 0.0 
1.06938 -0.1027 0.0 
0.967219 0.0193255 0.0 
1.13851 0.0486891 0.0 
0.282428 -0.0106045 0.0 
1.00064 0.0113125 0.0 
0.990507 0.0334198 0.0 
1.00975 0.0345371 0.0 
0.983927 0.0308119 0.0 
0.999728 0.0163419 0.0 
0.91886 0.0211586 0.0 
1.05897 -0.13138 0.0 
0.919113 0.0754569 0.0 
0.908875 0.131778 0.0 
1.04758 0.0147216 0.0 
1.1932 0.042482 0.0 
0.830034 0.116553 0.0 
1.056 -0.0333931 0.0 
0.56603 0.0219889 0.0 
0.975869 0.0432536 0.0 
0.932668 -0.0504146 0.0 
0.702005 0.194593 0.0 
0.89931 0.338856 0.0 
0.987402 0.0260207 0.0 
1.06611 -0.0131186 0.0 
0.967404 0.0860002 0.0 
1.11342 -0.0765177 0.0 
1.11145 0.0616609 0.0 
0.983311 0.0324592 0.0 
0.956362 0.0119017 0.0 
1.19379 0.04762 0.0 
0.999254 0.0227214 0.0 
1.07772 0.28369 0.0 
1.16727 0.0359701 0.0 
1.12389 -0.0775492 0.0 
0.994134 0.00995241 0.0 
1.01836 0.044943 0.0 
0.937545 0.00728458 0.0 
0.997255 0.00829514 0.0 
1.01849 0.284139 0.0 
1.05529 -0.0212574 0.0 
1.00076 0.151277 0.0 
0.925236 -0.00677209 0.0 
1.03724 0.0338562 0.0 
0.992937 0.0284575 0.0 
1.03793 0.0183877 0.0 
0.962881 0.025588 0.0 
0.985142 0.0280193 0.0 
1.0377 0.00906055 0.0 
1 0 0.0 
1.06922 -0.00586858 0.0 
0.984871 0.0296625 0.0 
1.04685 -7.48216e-05 0.0 
0.987699 0.0277972 0.0 
1.03152 -0.0309747 0.0 
1.03376 -0.0270838 0.0 
1.19381 0.0993311 0.0 
0.984932 0.026056 0.0 
1.12956 -0.0821657 0.0 
0.913571 -0.146626 0.0 
1.06779 -0.0016957 0.0 
1.12803 -0.114723 0.0 
1.14732 0.0511123 0.0 
0.931455 0.027141 0.0 
1.03738 0.00201959 0.0 
0.996024 0.016987 0.0 
0.979914 0.0389682 0.0 
0.984154 0.0109666 0.0 
0.995528 0.0102239 0.0 
0.990106 0.021078 0.0 
1.0901 0.168058 0.0 
0.948695 0.0243842 0.0 
0.998775 0.0174314 0.0 
1.14602 0.0586001 0.0 
1.16592 0.039749 0.0 
0.998518 0.0166846 0.0 
0.931177 -0.0571767 0.0 
0.999125 0.0139984 0.0 
1.04308 -0.128146 0.0 
0.995128 0.0175809 0.0 
1.00022 0.0108717 0.0 
0.980881 0.0281148 0.0 
0.988947 0.0280336 0.0 
0.996679 0.0211363 0.0 
0.992015 0.0298486 0.0 
0.882343 -0.105824 0.0 
1 0 0.0 
1 0 0.0 
1.03149 0.0458928 0.0 
0.995372 0.0237754 0.0 
0.231277 -0.00541502 0.0 
0.0639457 0.00741298 0.0 
1.11727 0.216711 0.0 
0.95965 -0.0453271 0.0 
1.20137 0.0761682 0.0 
1.14459 0.0627058 0.0 
0.994563 0.0182871 0.0 
1.14145 0.0707697 0.0 
0.991919 0.0243437 0.0 
0.94846 -0.164201 0.0 
1 0 0.0 
1.1574 0.033593 0.0 
0.962026 0.18968 0.0 
0.992862 0.0228541 0.0 
1.14412 -0.0851775 0.0 
1.04441 0.0152241 0.0 
1.04472 0.0169349 0.0 
0.982999 0.0287683 0.0 
0.995397 0.0111845 0.0 
1.12875 0.231986 0.0 
1.11866 0.0903032 0.0 
0.994318 0.019334 0.0 
0.159444 0.00200581 0.0 
0.9586 0.00100813 0.0 
0.992175 0.0119802 0.0 
0.995326 0.0118902 0.0 
0.362767 0.000395346 0.0 
0.985642 0.0229903 0.0 
0.948599 -0.0294493 0.0 
0.953745 -0.00698718 0.0 
0.0953878 -0.010521 0.0 
1 0 0.0 
1.06907 0 0.0 
1.00815 0.165814 0.0 
1.12019 -0.14611 0.0 
0.932208 0.0356164 0.0 
1.11319 -0.130197 0.0 
0.327064 -0.000305115 0.0 
0.0827039 -0.00872805 0.0 
0.989731 0.0127082 0.0 
0.985774 0.0215127 0.0 
0.987545 0.0158316 0.0 
0.991742 0.0141237 0.0 
1.10864 -0.173482 0.0 
1.06813 -0.0101554 0.0 
1.08014 0.146628 0.0 
1.12159 0.0832095 0.0 
0.225911 -0.00125047 0.0 
0.956933 0.0788813 0.0 
1.00068 0.0199055 0.0 
1.11163 0.256894 0.0 
0.972404 0.0322938 0.0 
1.06731 -0.0140557 0.0 
0.959468 0.0376205 0.0 
1.0672 -0.00687857 0.0 
0.483063 -0.0088815 0.0 
0.0818401 0.00353711 0.0 
0.0628394 0.0156604 0.0 
0.283984 -0.0046205 0.0 
0.999836 0.0120536 0.0 
0.0819649 0.00222832 0.0 
1.06016 -0.00148037 0.0 
1.16043 -0.042897 0.0 
1.0684 -0.00453836 0.0 
1 0 0.0 
0.999853 0.0156414 0.0 
1.06638 0.00127198 0.0 
0.979271 0.0316907 0.0 
0.100602 0.00768235 0.0 
1.05994 0.00554011 0.0 
0.079684 -0.00545776 0.0 
1.05723 0.0131706 0.0 
0.920549 0.0278275 0.0 
1.04339 0.000947545 0.0 
0.957556 0.0580087 0.0 
1.00003 0.0209098 0.0 
1.19586 -0.110073 0.0 
0.677505 -0.0110837 0.0 
1.03568 -0.0309744 0.0 
1.04171 -0.0364602 0.0 
1.06901 -0.0446933 0.0 
1.05617 0.0103278 0.0 
1.0679 -0.0124022 0.0 
1.18931 0.0205776 0.0 
1.04276 0.0146857 0.0 
1.24669 0.0829297 0.0 
1.03606 0.0313818 0.0 
1.00006 0.0166803 0.0 
1.17765 0.106802 0.0 
1.06532 -0.0192445 0.0 
0.972555 -0.0454891 0.0 
0.947997 0.0738572 0.0 
0.944416 0.03711 0.0 
1.01436 0.0413 0.0 
1.13443 -0.0022123 0.0 
0.929113 0.0324726 0.0 
1.00665 -0.00604592 0.0 
1.06652 0 0.0 
1.06434 -0.00309276 0.0 
0.934054 0.0541805 0.0 
1.13983 -0.163688 0.0 
0.935938 0.160317 0.0 
1.10314 -0.194954 0.0 
0.952687 -0.0202114 0.0 
1.08802 0.25074 0.0 
0.983461 0.0270791 0.0 
1.08782 0.104176 0.0 
0.790418 0.101358 0.0 
1.17639 0.105726 0.0 
0.47827 -0.00362621 0.0 
1.07654 0.186211 0.0 
1.00423 0.0209002 0.0 
1.057 0.0160544 0.0 
1.04347 0.00944269 0.0 
1.04785 -0.000402415 0.0 
1.04647 0.000719429 0.0 
0.0751115 0.0159455 0.0 
1.04246 0.00269575 0.0 
-0.0339075 0.0234046 0.0 
1.06216 -0.039649 0.0 
1.00426 0.0345808 0.0 
1.04505 0.0100757 0.0 
1 0 0.0 
0.983442 0.0259198 0.0 
1.19439 0.0951888 0.0 
0.768056 -0.0378454 0.0 
0.999703 0.0150891 0.0 
0.992025 0.038576 0.0 
1.05032 0.0108229 0.0 
1.05518 0.00585793 0.0 
0.940153 0.188998 0.0 
0.781361 0.130519 0.0 
1.0045 0.0179203 0.0 
1.14316 0.128894 0.0 
1.00017 0.243282 0.0 
0.999207 0.0117594 0.0 
0.986119 0.0288311 0.0 
1.05152 0.00170973 0.0 
0.938147 0.12454 0.0 
0.172232 0.014394 0.0 
1.05054 0.00388077 0.0 
0.173964 0.0991314 0.0 
1.05071 -0.000409853 0.0 
1.01995 -0.0114273 0.0 
1.01648 0.0464842 0.0 
1.12368 -0.0461595 0.0 
1.04734 0.00284278 0.0 
0.957234 -0.00638089 0.0 
0.35173 0.0139267 0.0 
1.06391 -0.0226086 0.0 
0.946798 -0.00158644 0.0 
0.999913 0.0147799 0.0 
1.06141 -0.0275652 0.0 
0.942032 0.0655672 0.0 
1.1981 -0.0455014 0.0 
0.264451 -0.012263 0.0 
0.608132 -0.0148862 0.0 
0.94132 -0.00476412 0.0 
0.964878 0.272371 0.0 
0.251465 0.0479545 0.0 
0.997159 0.315938 0.0 
0.940702 -0.00427924 0.0 
1.07964 -0.0429885 0.0 
0.708339 0.00221122 0.0 
0.357495 0.116342 0.0 
1.1028 0.0696136 0.0 
0.998789 0.0118793 0.0 
0.56095 0.00230603 0.0 
0.156278 0.0368866 0.0 
0.914676 -0.0435131 0.0 
0.763681 -0.022014 0.0 
1.03293 0.0478307 0.0 
0.998837 0.0114911 0.0 
1.02661 -0.0978938 0.0 
1.11516 -0.0345497 0.0 
1.17485 0.0230074 0.0 
0.0824309 -0.00340237 0.0 
0.936538 -0.0577218 0.0 
1.03495 0.0441002 0.0 
1.06811 -0.00802779 0.0 
0.938301 -0.00914904 0.0 
0.074904 0.00473471 0.0 
0.998873 0.0124017 0.0 
1.1736 0.0278273 0.0 
1.05971 -0.0267759 0.0 
0.964107 0.216072 0.0 
1.05338 0.0178191 0.0 
1.06975 0.000352283 0.0 
1.06991 0.00518404 0.0 
0.954723 0.0373893 0.0 
1.06171 -0.0245435 0.0 
0.999012 0.0135639 0.0 
0.952428 0.00689038 0.0 
1.13897 -0.0335972 0.0 
1.05665 0.0203639 0.0 
0.989447 0.00712765 0.0 
0.953607 0.0151445 0.0 
0.999056 0.0137439 0.0 
1.05983 0.00516914 0.0 
1.04225 -0.00457545 0.0 
1.06151 -0.0217687 0.0 
0.990611 0.00875915 0.0 
1.02313 0.0483537 0.0 
0.998927 0.0130382 0.0 
1.04518 -0.0263427 0.0 
1.06745 0.0195456 0.0 
0.0548648 0.014677 0.0 
0.0515867 0.00841068 0.0 
1.07041 0.015527 0.0 
0.905541 -0.0565526 0.0 
0.889387 -0.0477903 0.0 
0.880909 0.120388 0.0 
0.999519 0.0136632 0.0 
0.998936 0.0136734 0.0 
0.96301 -0.0133351 0.0 
0.965157 -0.00214444 0.0 
1.03535 0.0278512 0.0 
0.964086 0.234956 0.0 
1.06763 0.151967 0.0 
1.03057 -0.0441761 0.0 
0.068598 -0.00548829 0.0 
1.16191 0.0231719 0.0 
1.093 0.143485 0.0 
0.998783 0.0132072 0.0 
1.01677 0.0376595 0.0 
1.11277 -0.00846509 0.0 
0.982938 0.0207357 0.0 
0.93472 0.0463085 0.0 
1.03082 -0.0290018 0.0 
0.973525 0.0371812 0.0 
0.941476 0.108927 0.0 
0.934397 0.0588383 0.0 
0.810847 -0.0352496 0.0 
0.963047 0.0069356 0.0 
0.789332 -0.0480161 0.0 
1.00116 0.0178033 0.0 
1.03131 0.0424637 0.0 
0.954024 -0.0103669 0.0 
0.961747 -0.00119171 0.0 
0.922859 0.0340945 0.0 
1.10134 0.249129 0.0 
0.97248 0.00589316 0.0 
0.942468 0.291909 0.0 
0.945612 0.0326372 0.0 
0.975538 0.226479 0.0 
0.850007 0.286084 0.0 
0.995256 0.00733678 0.0 
1.00073 0 0.0 
0.998868 0.011892 0.0 
0.977403 0.00136277 0.0 
0.894525 0.154064 0.0 
0.134506 0.00879997 0.0 
1.01092 0.042859 0.0 
0.980883 0.00695707 0.0 
0.999437 0.012285 0.0 
0.915993 -0.0719633 0.0 
0.91688 0.032894 0.0 
1.19699 -0.0342257 0.0 
0.998771 0.0121516 0.0 
0.958844 0.0761324 0.0 
0.748073 -0.0747621 0.0 
1.03368 -0.0230357 0.0 
0.936458 0.0635719 0.0 
0.995387 0.0159454 0.0 
0.944646 0.0273968 0.0 
0.99119 0.0197822 0.0 
0.0809276 0.00865633 0.0 
0.740846 -0.0652602 0.0 
1.04447 -0.00226043 0.0 
1.15677 0.0831773 0.0 
1.14496 -0.0255578 0.0 
0.997743 0.0104895 0.0 
0.982356 0.0183649 0.0 
1.00447 0.202316 0.0 
1.11474 0.157872 0.0 
0.583094 0.0956466 0.0 
0.951464 0.18918 0.0 
0.981732 0.0187332 0.0 
0.281492 -0.0240323 0.0 
0.982739 0.0216391 0.0 
0.997359 0.0125111 0.0 
1.00047 0.0192759 0.0 
0.228192 -0.020117 0.0 
0.187274 -0.0112766 0.0 
0.981963 0.0298726 0.0 
0.337938 0.0581783 0.0 
1.19322 0.0909676 0.0 
1.01015 0.0423573 0.0 
0.981133 0.0321319 0.0 
0.999825 0.0191948 0.0 
0.978054 0.0110392 0.0 
0.93056 0.0686351 0.0 
0.976739 0.0255508 0.0 
0.852326 0.285221 0.0 
0.471031 -0.0299834 0.0 
0.211807 -0.00991943 0.0 
0.968359 0.0133337 0.0 
0.97494 0.0119499 0.0 
1.05475 0.204856 0.0 
0.289371 -0.026371 0.0 
0.940093 0.0208624 0.0 
1.03405 -0.0385524 0.0 
0.983376 0.245941 0.0 
0.999366 0.013308 0.0 
0.922817 0.0817734 0.0 
0.972582 0.0307984 0.0 
0.930453 0.143326 0.0 
0.959395 0.156632 0.0 
1.00921 0.255369 0.0 
0.702935 -0.0255455 0.0 
0.937534 -0.0524668 0.0 
1.11795 0.0591962 0.0 
0.468903 0.0937523 0.0 
0.926649 -0.059785 0.0 
0.102466 0.00614006 0.0 
0.89925 -0.0129635 0.0 
0.748867 0.136172 0.0 
0.915332 -0.0665419 0.0 
0.922408 -0.0562715 0.0 
0.614518 0.165293 0.0 
1.04711 0.0079235 0.0 
0.941225 0.173462 0.0 
0.879907 -0.00500519 0.0 
0.928535 -0.0538554 0.0 
1.04122 -0.00484065 0.0 
0.340294 0.0416032 0.0 
1.03791 -0.00815531 0.0 
0.866351 0.00733382 0.0 
0.897486 0.217473 0.0 
1.04999 -0.000410974 0.0 
0.906899 -0.0882113 0.0 
0.921525 0.183107 0.0 
0.271966 -0.0271429 0.0 
1.13146 0.0620762 0.0 
1.03461 0.170574 0.0 
0.831248 0.380935 0.0 
1.10259 0.165111 0.0 
1.0643 0.260083 0.0 
0.946023 -0.037464 0.0 
0.708446 -0.0893114 0.0 
0.977849 0.0331457 0.0 
0.521924 0.0621455 0.0 
0.918634 -0.0527651 0.0 
1.05033 0.0686394 0.0 
0.167232 -0.000170318 0.0 
1.04424 0.263846 0.0 
1.06082 0.0421704 0.0 
0.879312 0.105298 0.0 
1.00529 0.0213996 0.0 
0.893049 0.0669201 0.0 
0.124067 0.00896461 0.0 
0.853596 0.0764032 0.0 
0.949642 0.0367457 0.0 
0.947536 0.00374862 0.0 
1.17439 -0.0392705 0.0 
0.763713 0.335481 0.0 
0.847957 0.0891301 0.0 
1.02909 0.0725635 0.0 
1.08252 -0.0953745 0.0 
0.921276 -0.0469991 0.0 
1.04007 0.272105 0.0 
0.964896 0.0167293 0.0 
0.995914 0.0399243 0.0 
0.910549 0.0769853 0.0 
0.924882 0.112645 0.0 
0.910953 0.0353478 0.0 
1.00935 0.0270087 0.0 
0.920116 0.105952 0.0 
0.917726 0.22095 0.0 
0.999288 0.0124113 0.0 
1.09247 -0.0709341 0.0 
0.288378 -0.0296871 0.0 
1.05388 0.251434 0.0 
0.96649 0.203151 0.0 
0.807433 0.151292 0.0 
0.827224 0.0381745 0.0 
0.88658 0.02978 0.0 
1.04236 0.305403 0.0 
0.999685 0.0170477 0.0 
1.12532 0.140216 0.0 
1.03345 0.22661 0.0 
0.88655 -0.0484153 0.0 
0.923166 -0.00203977 0.0 
0.858683 0.158467 0.0 
0.911223 0.0205707 0.0 
0.885454 0.0147834 0.0 
0.93254 -0.0461805 0.0 
0.934483 0.207354 0.0 
0.995856 0.0300042 0.0 
0.999683 0.0145584 0.0 
0.10299 0.0109481 0.0 
0.0920049 0.0130574 0.0 
0.913178 0.0276848 0.0 
0.526522 0.153738 0.0 
1.03922 -0.00664084 0.0 
0.921896 -0.0164853 0.0 
0.978104 -0.00112173 0.0 
0.902911 0.076459 0.0 
0.842126 0.00665139 0.0 
1.08247 -0.0673252 0.0 
0.955244 0.00784632 0.0 
0.975644 0.00895811 0.0 
1.0845 0.267968 0.0 
0.20918 -0.0134067 0.0 
0.930894 0.300373 0.0 
0.973131 0.00249714 0.0 
0.98919 0.0538484 0.0 
1.06924 -0.229385 0.0 
0.969121 0.00454114 0.0 
0.961884 0.0124174 0.0 
0.997764 0.0130594 0.0 
1.03836 -0.0078989 0.0 
0.797823 0.108765 0.0 
0.90474 0.0183129 0.0 
0.99098 0.00527037 0.0 
1.02886 -0.182809 0.0 
0.995261 0.0152305 0.0 
0.935722 0.0240081 0.0 
0.810812 0.168369 0.0 
0.950218 -0.00861996 0.0 
0.998147 0.00997512 0.0 
0.938973 0.00459983 0.0 
0.18869 0.128536 0.0 
0.944075 -0.00852676 0.0 
1.06609 -0.00938669 0.0 
0.954222 0.288834 0.0 
0.0679701 0.00954059 0.0 
1.10169 0.255293 0.0 
0.988069 0.0147167 0.0 
0.905177 -0.122561 0.0 
0.969014 0.00170877 0.0 
0.959802 0.00900978 0.0 
0.960052 0.00441046 0.0 
0.543818 0.134879 0.0 
0.962086 0.00172976 0.0 
0.956205 -0.0136996 0.0 
0.652149 0.184313 0.0 
1.03501 -0.0117154 0.0 
1.03478 0.0448214 0.0 
0.997121 0.266131 0.0 
0.981185 0.0206441 0.0 
0.975665 0.028837 0.0 
0.964843 0.00380397 0.0 
0.893752 0.0128386 0.0 
0.95915 -0.0179932 0.0 
0.116759 0.002051 0.0 
0.968875 -0.0003551 0.0 
1.06184 0.0172455 0.0 
0.876547 0.168042 0.0 
0.996528 0.0118737 0.0 
1.06744 0.0282056 0.0 
1.05801 0.094914 0.0 
1.10282 -0.07107 0.0 
1.09706 0.104884 0.0 
0.976669 -0.00308575 0.0 
0.877203 0.183007 0.0 
0.996704 0.0142547 0.0 
0.996997 0.0109573 0.0 
0.890069 -0.041294 0.0 
0.978881 0.0256041 0.0 
1.16437 -0.227111 0.0 
0.670057 0.0121697 0.0 
0.942272 0.0414414 0.0 
1.01774 0.302791 0.0 
0.908396 0.353349 0.0 
0.839443 0.132084 0.0 
1.16046 0.0754874 0.0 
0.154016 0.134066 0.0 
1.01855 0.289769 0.0 
1.06668 0.26605 0.0 
1.04005 -0.00501778 0.0 
0.939143 0.094125 0.0 
0.0468388 0.004876 0.0 
1.17668 0.147592 0.0 
0.978006 0.0316867 0.0 
0.910365 0.121987 0.0 
1.12714 0.220035 0.0 
0.851791 0.124259 0.0 
-0.0410302 -0.0169598 0.0 
0.97909 0.0298172 0.0 
0.925428 0.0735186 0.0 
0.745507 0.140641 0.0 
0.979919 0.0265623 0.0 
0.912164 0.150087 0.0 
0.995943 0.0123438 0.0 
0.903485 0.101395 0.0 
0.979414 0.0277319 0.0 
0.854312 0.0555641 0.0 
0.831383 0.0224127 0.0 
0.904644 0.164169 0.0 
0.998815 0.0111837 0.0 
0.969086 -0.0048229 0.0 
0.980375 0.0249055 0.0 
0.9992 0.0173372 0.0 
0.962955 -0.00485514 0.0 
0.961937 -0.00852418 0.0 
0.966397 -0.0043114 0.0 
0.938513 -0.041558 0.0 
0.926189 0.0580032 0.0 
0.92682 0.0879983 0.0 
1.0423 -0.000404126 0.0 
0.989941 0.0317918 0.0 
1.06633 0.0292672 0.0 
0.999302 0.0142404 0.0 
1.07948 -0.00654811 0.0 
1.00572 0.0796538 0.0 
0.94995 0.0131569 0.0 
0.977143 0.0269129 0.0 
1.05046 -0.1611 0.0 
1.10179 0.243261 0.0 
1.12501 0.231473 0.0 
0.933596 -0.0323068 0.0 
0.999192 0.013774 0.0 
0.951439 0.0108118 0.0 
0.996447 0.0134125 0.0 
0.979674 0.00523703 0.0 
1.0571 0.0104335 0.0 
1.04932 -0.171819 0.0 