<VTKFile type="UnstructuredGrid" version="0.1" byte_order="LittleEndian">
  <UnstructuredGrid>
    <Piece NumberOfPoints="9712" NumberOfCells="19403">
      <Points>
        <DataArray type = "Float64" NumberOfComponents="3" format="ascii">
-5 -7 0.0 
15.5 -7 0.0 
15.5 7 0.0 
-5 7 0.0 
-1.6546 1.77742 0.0 
-2.13867 1.86504 0.0 
-1.83467 1.79143 0.0 
1.47969 -2.21179 0.0 
1.36003 -2.38618 0.0 
1.4346 -2.45048 0.0 
-2.04214 1.94165 0.0 
-0.20425 1.17338 0.0 
-2.07648 1.81911 0.0 
-2.00827 1.89081 0.0 
-2.05492 1.98872 0.0 
0.192693 0.536219 0.0 
0.154285 1.75648 0.0 
1.1379 -1.62057 0.0 
-2.11226 1.96977 0.0 
-1.74119 1.75327 0.0 
1.14499 -1.58184 0.0 
-1.94373 2.37229 0.0 
1.50619 -0.664239 0.0 
1.99658 -1.76705 0.0 
1.7229 -1.18344 0.0 
-1.97759 2.52091 0.0 
-0.768046 0.387136 0.0 
1.32657 -1.43969 0.0 
1.90142 0.24821 0.0 
-0.93264 1.51038 0.0 
1.09557 0.967223 0.0 
0.627111 0.757352 0.0 
-2.05707 2.31394 0.0 
1.34027 -2.45136 0.0 
-0.725097 0.397516 0.0 
-0.666094 2.30428 0.0 
-0.73829 -0.279965 0.0 
1.73336 -1.08822 0.0 
1.88466 -1.24421 0.0 
1.50539 -1.23752 0.0 
1.65978 -1.30759 0.0 
-0.0409718 0.542603 0.0 
1.6005 -1.1227 0.0 
1.78439 -0.941488 0.0 
1.86015 -1.54236 0.0 
1.49308 -1.40058 0.0 
2.34892 -1.47149 0.0 
2.13832 -1.3246 0.0 
1.73061 0.751302 0.0 
-0.580328 0.526903 0.0 
1.51013 -2.1595 0.0 
-1.65424 3.45779 0.0 
-1.51397 2.46352 0.0 
1.42773 -2.17867 0.0 
0.304353 0.497878 0.0 
2.24628 0.228293 0.0 
1.51258 -2.27933 0.0 
-1.60346 3.44299 0.0 
-1.71408 2.36227 0.0 
2.17421 0.530405 0.0 
2.42 0.316451 0.0 
-1.63642 3.31911 0.0 
2.53942 -0.995036 0.0 
0.750003 0.810439 0.0 
2.04736 0.40918 0.0 
1.19615 -1.50641 0.0 
2.13474 0.494063 0.0 
0.547924 0.306722 0.0 
-0.2059 0.361394 0.0 
2.2127 0.547693 0.0 
1.41442 -0.597105 0.0 
1.52233 -1.46252 0.0 
-1.84114 2.53924 0.0 
-5 -2.53894 0.0 
2.32127 0.371156 0.0 
-1.69186 3.33379 0.0 
-0.964779 0.566136 0.0 
-1.81311 2.48387 0.0 
-1.78557 3.38304 0.0 
1.48278 0.914136 0.0 
2.51531 -1.89689 0.0 
1.20982 -0.330514 0.0 
0.408434 0.319657 0.0 
0.95023 0.60993 0.0 
-0.752349 0.440796 0.0 
-0.998248 0.564019 0.0 
-1.73165 3.36299 0.0 
1.24353 -1.49063 0.0 
0.942095 0.817189 0.0 
-1.77816 2.47096 0.0 
2.48183 -1.95479 0.0 
1.33574 -1.77854 0.0 
0.823335 1.12085 0.0 
-0.36308 0.598468 0.0 
0.745466 0.783414 0.0 
-1.88344 2.8521 0.0 
-1.79794 3.52221 0.0 
3.0087 0.272815 0.0 
-1.81486 2.66014 0.0 
0.375911 -0.403668 0.0 
-0.68323 0.487288 0.0 
-0.34187 -0.274923 0.0 
-0.293875 -0.201368 0.0 
1.61018 -1.767 0.0 
-0.448275 -0.347267 0.0 
-1.08687 0.352015 0.0 
1.29257 -1.76345 0.0 
1.67658 -1.49551 0.0 
1.19193 0.533009 0.0 
1.21582 -1.91654 0.0 
-0.36438 -0.346225 0.0 
-0.92534 0.330346 0.0 
2.3836 0.287756 0.0 
1.68841 0.639887 0.0 
1.59001 -1.89458 0.0 
1.14818 -1.92143 0.0 
1.28996 -2.19426 0.0 
1.37603 -1.8763 0.0 
1.23834 -2.09141 0.0 
1.11702 -2.06287 0.0 
0.691829 0.463808 0.0 
1.46523 -2.03459 0.0 
-0.123547 0.424486 0.0 
-1.3311 2.12174 0.0 
1.08169 -1.90074 0.0 
1.87975 -2.15971 0.0 
1.10131 -1.78593 0.0 
1.13722 0.534683 0.0 
1.42465 -1.59031 0.0 
-1.45435 2.47344 0.0 
1.41998 -1.98207 0.0 
0.463917 1.8787 0.0 
-1.72896 2.89571 0.0 
1.12419 -1.84975 0.0 
1.59054 -1.20634 0.0 
0.46124 0.621002 0.0 
0.806438 -1.00204 0.0 
2.1804 0.349761 0.0 
2.21142 -1.6418 0.0 
1.10152 -0.274558 0.0 
2.23388 0.387302 0.0 
0.137769 0.567007 0.0 
1.88736 0.267391 0.0 
1.26821 -1.94267 0.0 
0.21033 -0.605707 0.0 
2.61094 -1.50046 0.0 
0.819837 0.743337 0.0 
-1.4303 2.07799 0.0 
1.82013 0.322126 0.0 
-1.47649 2.2099 0.0 
1.15745 -0.274223 0.0 
-1.81198 2.24994 0.0 
2.34337 -1.67775 0.0 
-1.13329 1.37877 0.0 
-0.828215 1.05292 0.0 
2.46752 -1.53452 0.0 
-1.69915 2.18529 0.0 
-0.404416 -0.286271 0.0 
-1.23501 1.31766 0.0 
2.11757 -1.50659 0.0 
-1.08535 1.28274 0.0 
2.58548 -1.70783 0.0 
0.24729 -0.572345 0.0 
-1.66963 2.25319 0.0 
1.58322 -1.62308 0.0 
-0.367923 -0.306026 0.0 
0.391521 1.44485 0.0 
1.88977 -2.46319 0.0 
1.5943 -1.53613 0.0 
-0.357143 -0.23651 0.0 
0.82621 0.80563 0.0 
-1.59261 2.31884 0.0 
-0.47244 -0.307516 0.0 
-0.40334 -0.326688 0.0 
-2.00063 2.11543 0.0 
1.55514 -1.95078 0.0 
-1.40431 2.26352 0.0 
-0.0265928 0.573714 0.0 
1.17093 1.10579 0.0 
-1.77907 2.22111 0.0 
0.682788 0.329642 0.0 
-0.54475 2.15572 0.0 
-0.288592 0.289433 0.0 
-1.43199 2.16349 0.0 
-1.45029 2.25134 0.0 
1.5535 -1.79992 0.0 
-1.06406 1.08381 0.0 
1.72954 1.44966 0.0 
0.582806 0.515814 0.0 
0.582876 -0.679913 0.0 
1.32351 -0.355916 0.0 
-0.47505 0.577092 0.0 
-0.371167 0.227715 0.0 
1.52235 -1.8529 0.0 
-0.429822 -0.244811 0.0 
-0.53237 -0.24648 0.0 
-0.393983 -0.210364 0.0 
0.652895 0.317361 0.0 
1.55812 -1.70765 0.0 
1.63021 0.325622 0.0 
0.442731 0.358729 0.0 
1.22925 -1.85192 0.0 
1.43517 -1.79082 0.0 
1.39317 -1.6984 0.0 
1.62965 0.295952 0.0 
0.905462 0.793465 0.0 
1.04036 -1.64811 0.0 
2.1131 -1.72466 0.0 
-0.743911 0.369492 0.0 
1.14427 -1.99314 0.0 
1.26033 -2.0209 0.0 
-1.70955 2.07308 0.0 
0.910023 -1.62976 0.0 
-0.313059 -0.0954838 0.0 
-1.77334 2.3988 0.0 
-0.311958 -0.24042 0.0 
2.53315 0.325608 0.0 
-0.273728 -0.226719 0.0 
-0.646401 0.379627 0.0 
1.52426 0.616074 0.0 
2.21703 -1.79499 0.0 
2.71108 0.312216 0.0 
0.759924 1.093 0.0 
-1.69271 2.12368 0.0 
0.255794 0.540969 0.0 
0.0534699 0.562158 0.0 
-1.5679 2.22408 0.0 
-1.66906 2.45165 0.0 
-1.51895 2.09449 0.0 
2.16948 0.408238 0.0 
-0.818806 0.680638 0.0 
-0.826868 0.642087 0.0 
0.519855 0.276992 0.0 
-0.716682 1.18602 0.0 
-0.649974 -0.148775 0.0 
0.457368 0.256619 0.0 
0.517407 0.248194 0.0 
0.327129 0.39802 0.0 
0.533249 -0.878832 0.0 
-0.870735 0.634904 0.0 
1.19219 1.07557 0.0 
2.35922 0.366028 0.0 
-1.66911 3.66723 0.0 
-0.857603 1.54934 0.0 
-0.379189 2.30131 0.0 
-0.941007 1.36523 0.0 
-1.58662 2.49682 0.0 
-0.545297 0.352587 0.0 
0.327944 -0.744683 0.0 
-0.312756 0.524741 0.0 
-0.107843 0.506233 0.0 
2.13378 -2.36584 0.0 
1.52689 0.686953 0.0 
-0.119983 0.327909 0.0 
1.02161 -1.53072 0.0 
1.51507 0.39695 0.0 
-0.674484 1.02605 0.0 
-0.564724 -0.148435 0.0 
0.409388 0.290913 0.0 
0.252349 0.30842 0.0 
-1.09282 1.45998 0.0 
1.45674 -1.54484 0.0 
-0.266777 0.782169 0.0 
0.91327 -0.874389 0.0 
1.01208 1.13309 0.0 
-0.897136 1.35063 0.0 
-0.846484 0.489353 0.0 
1.47563 0.663768 0.0 
-1.22282 2.05021 0.0 
0.348906 0.416714 0.0 
1.41913 0.964648 0.0 
0.933289 -0.839038 0.0 
-1.85066 1.40221 0.0 
0.142477 1.99435 0.0 
-0.717809 0.341194 0.0 
-2.21177 1.41584 0.0 
0.396571 0.350929 0.0 
1.25171 -1.60721 0.0 
0.736798 0.393502 0.0 
-0.661427 0.19031 0.0 
2.18751 -2.32769 0.0 
-1.00908 1.6747 0.0 
2.21416 -2.07269 0.0 
-0.779194 0.642011 0.0 
-1.02312 1.3939 0.0 
2.08809 -2.24876 0.0 
-5 -4.48794 0.0 
1.61792 -1.46215 0.0 
-0.974627 1.38947 0.0 
1.81166 -2.48446 0.0 
-1.03635 1.47474 0.0 
0.869004 -1.74424 0.0 
0.956579 -1.78598 0.0 
1.07495 0.540689 0.0 
-1.08005 1.37763 0.0 
0.914755 -0.803058 0.0 
0.611759 -0.305322 0.0 
1.70043 -1.41356 0.0 
0.75708 -0.631542 0.0 
1.21215 1.01979 0.0 
-0.586902 0.440014 0.0 
1.9251 -2.56336 0.0 
-1.58261 1.91091 0.0 
-0.746541 1.26087 0.0 
-1.49915 1.13657 0.0 
-1.46675 0.971536 0.0 
-1.05881 0.930935 0.0 
0.71826 0.415078 0.0 
-0.701697 0.526982 0.0 
-1.56194 2.05157 0.0 
1.15988 0.991244 0.0 
1.38676 0.949615 0.0 
-1.61697 2.02689 0.0 
1.13748 -0.357331 0.0 
-1.8456 2.04561 0.0 
0.253686 -0.756334 0.0 
-1.53603 1.86509 0.0 
-1.43465 0.924137 0.0 
-1.00273 1.27416 0.0 
-1.03063 1.5132 0.0 
-1.32483 1.94769 0.0 
-0.965552 1.61445 0.0 
-0.239859 -0.245939 0.0 
-5 3.01776 0.0 
-5 -0.248741 0.0 
0.517491 1.87079 0.0 
-1.18776 1.8875 0.0 
2.27458 0.36201 0.0 
1.9794 0.331487 0.0 
0.503086 0.510306 0.0 
1.26387 -0.370702 0.0 
1.24483 0.550197 0.0 
1.12871 0.979556 0.0 
-1.48659 1.83259 0.0 
1.0672 0.958366 0.0 
-1.16856 1.61214 0.0 
-0.218637 -0.230696 0.0 
-5 1.81431 0.0 
1.37014 1.04658 0.0 
0.0950623 0.557621 0.0 
-1.23613 1.67303 0.0 
0.953731 -0.709843 0.0 
2.07568 -1.85385 0.0 
2.10836 -1.82014 0.0 
-0.994952 1.33552 0.0 
-1.86986 1.52312 0.0 
0.515812 0.447542 0.0 
0.842446 0.992035 0.0 
-1.42353 1.8223 0.0 
2.091 0.354014 0.0 
-0.937663 0.401428 0.0 
-1.69305 1.41997 0.0 
-1.82465 1.55127 0.0 
2.15192 0.384657 0.0 
-1.17972 1.37998 0.0 
-0.718866 -0.0130647 0.0 
-0.927867 0.290435 0.0 
1.56509 0.300406 0.0 
-5 -3.04052 0.0 
9.98027 -7 0.0 
0.176009 0.694641 0.0 
0.597997 -0.559941 0.0 
-0.546583 0.4849 0.0 
0.602022 -0.657834 0.0 
2.17737 0.379672 0.0 
1.89809 0.287017 0.0 
-1.58883 1.35796 0.0 
-1.2284 1.37063 0.0 
-1.43937 1.35342 0.0 
-1.59664 1.47263 0.0 
0.577431 -0.368705 0.0 
1.5263 -1.51093 0.0 
0.479666 0.796509 0.0 
0.894995 1.01463 0.0 
2.22312 0.363016 0.0 
-0.320562 0.726481 0.0 
-1.30188 2.41386 0.0 
0.43802 0.434693 0.0 
-0.761697 0.762024 0.0 
1.45688 -1.49591 0.0 
-0.65072 0.676835 0.0 
1.6097 -1.41509 0.0 
2.25768 0.399237 0.0 
1.85518 0.299709 0.0 
2.14618 0.290757 0.0 
2.25222 0.371677 0.0 
-1.93063 2.91367 0.0 
1.52717 0.319618 0.0 
1.67964 -1.62237 0.0 
1.35962 -0.439169 0.0 
1.63007 -1.54335 0.0 
-5 -0.764504 0.0 
-1.61377 2.62271 0.0 
1.73865 -1.57725 0.0 
-0.908306 1.23669 0.0 
1.60766 0.330292 0.0 
1.82509 -1.63054 0.0 
1.90521 0.312457 0.0 
1.98719 -1.6488 0.0 
-0.528791 0.39225 0.0 
1.94978 -2.39003 0.0 
-0.472559 0.718465 0.0 
-1.28058 2.26572 0.0 
0.881581 -0.556282 0.0 
2.26369 0.42542 0.0 
0.917309 -1.69962 0.0 
0.853954 -1.60945 0.0 
1.30086 -0.404316 0.0 
1.99565 -2.46852 0.0 
1.49445 -1.47573 0.0 
1.68285 0.863315 0.0 
2.03074 -2.37549 0.0 
2.52279 -0.506167 0.0 
2.56049 -1.76899 0.0 
-1.52889 2.56597 0.0 
2.81136 -0.570221 0.0 
1.3688 -1.46095 0.0 
1.29524 -0.373946 0.0 
-0.350504 0.671928 0.0 
-0.590282 0.564035 0.0 
-0.054366 2.16706 0.0 
1.50819 1.22548 0.0 
-0.548222 0.453941 0.0 
2.19936 -2.5207 0.0 
12.2704 -7 0.0 
1.6811 -1.36761 0.0 
-0.449261 0.559535 0.0 
0.537017 -0.527614 0.0 
-0.00733391 0.553304 0.0 
0.494109 -0.356396 0.0 
-0.7939 0.0827441 0.0 
0.39888 0.467333 0.0 
-1.04288 1.34095 0.0 
0.605019 1.02824 0.0 
0.847559 0.374727 0.0 
1.00336 0.618307 0.0 
2.1955 0.399186 0.0 
0.656973 0.401158 0.0 
-0.998431 2.73564 0.0 
[...]
<PointData>
  <DataArray type = "Float64" Name="VitesseP1" NumberOfComponents="3" format="ascii">
1 0 0.0 
1.09286 0 0.0 
1.03514 0 0.0 
1 0 0.0 
0.994569 0.0158708 0.0 
0.996884 0.0111833 0.0 
0.995455 0.0136713 0.0 
1.04196 -0.00447177 0.0 
1.04385 -0.00564838 0.0 
1.04906 -0.00528992 0.0 
0.997731 0.0121173 0.0 
0.986364 0.0730029 0.0 
0.996576 0.011516 0.0 
0.996787 0.0123088 0.0 
0.998895 0.0121206 0.0 
0.991575 0.218663 0.0 
1.01991 0.0539769 0.0 
1.04973 -0.0266604 0.0 
0.99882 0.0115382 0.0 
0.994987 0.0146005 0.0 
1.05492 -0.0276235 0.0 
0.998826 0.01346 0.0 
1.15959 -0.0268874 0.0 
1.04712 0.0112217 0.0 
1.0635 -0.00284555 0.0 
0.998789 0.0130413 0.0 
0.944325 0.00877764 0.0 
1.06308 -0.0227493 0.0 
0.0631263 0.0014729 0.0 
0.988705 0.0315293 0.0 
1.14293 0.0699285 0.0 
1.10943 0.143526 0.0 
0.998821 0.0124597 0.0 
1.0338 -0.0187563 0.0 
0.941157 0.012376 0.0 
1.00536 0.0305052 0.0 
0.936611 -0.0514895 0.0 
1.08468 -0.00269157 0.0 
1.05615 0.00784766 0.0 
1.0537 -0.0164138 0.0 
1.05644 -0.00589742 0.0 
0.9264 0.151954 0.0 
1.07502 -0.0119788 0.0 
1.12645 0.000622293 0.0 
1.06851 0.0061183 0.0 
1.06344 -0.0145789 0.0 
1.06327 0.0334748 0.0 
1.05696 0.0234154 0.0 
1.20154 0.0325333 0.0 
0.939299 0.0357789 0.0 
1.04075 -0.00442961 0.0 
1.00251 0.0123858 0.0 
0.999766 0.0176402 0.0 
1.04019 -0.00603995 0.0 
1.03684 0.243811 0.0 
0.0360774 0.00787031 0.0 
1.04363 -0.00343942 0.0 
1.00273 0.0127911 0.0 
0.999049 0.0157281 0.0 
1.15506 0.00488896 0.0 
0.105374 0.00589277 0.0 
1.00238 0.0130705 0.0 
1.09676 0.0601427 0.0 
1.12247 0.12227 0.0 
0.515111 0.00667328 0.0 
1.06083 -0.0275734 0.0 
1.04865 0.00690478 0.0 
0.552685 0.134485 0.0 
0.862323 0.0856204 0.0 
1.18203 -8.67446e-05 0.0 
1.20274 -0.0387177 0.0 
1.06702 -0.0121974 0.0 
0.999 0.0141878 0.0 
1 0 0.0 
0.26727 0.000184896 0.0 
1.00215 0.0126431 0.0 
0.967988 0.0106759 0.0 
0.999022 0.0145446 0.0 
1.00177 0.0118153 0.0 
1.17478 0.0388174 0.0 
1.03783 0.0220502 0.0 
0.74853 -0.0408577 0.0 
0.946611 0.263333 0.0 
1.17261 0.117252 0.0 
0.945964 0.0143299 0.0 
0.969808 0.00896755 0.0 
1.00205 0.0122509 0.0 
1.06219 -0.0258005 0.0 
1.14335 0.0994002 0.0 
0.999087 0.0148948 0.0 
1.04445 0.0267289 0.0 
1.04276 -0.0151232 0.0 
1.09725 0.0809154 0.0 
0.935205 0.0702815 0.0 
1.12474 0.126416 0.0 
0.999838 0.0129763 0.0 
1.00218 0.0110364 0.0 
-0.019336 -0.151499 0.0 
0.99919 0.0141231 0.0 
1.19026 -0.234809 0.0 
0.943847 0.0231247 0.0 
0.918376 -0.0885079 0.0 
0.915176 -0.0745854 0.0 
1.04721 -0.00465362 0.0 
0.923995 -0.0784427 0.0 
0.967041 -0.00812606 0.0 
1.04246 -0.017073 0.0 
1.06886 -0.00363638 0.0 
1.19479 0.0860907 0.0 
1.03775 -0.01659 0.0 
0.91967 -0.0887904 0.0 
0.954684 -0.00360953 0.0 
0.0624622 0.0153571 0.0 
1.20382 0.0396748 0.0 
1.04386 -0.00445013 0.0 
1.0362 -0.0184212 0.0 
1.03786 -0.00869061 0.0 
1.04167 -0.0120255 0.0 
1.03526 -0.0124642 0.0 
1.03239 -0.0174228 0.0 
1.16217 0.18552 0.0 
1.03889 -0.0069352 0.0 
0.876819 0.12623 0.0 
0.999037 0.0211265 0.0 
1.03511 -0.0209473 0.0 
1.04082 0.00459521 0.0 
1.03753 -0.0233291 0.0 
1.19453 0.0934119 0.0 
1.06117 -0.0151396 0.0 
1.00001 0.0182701 0.0 
1.03896 -0.00901647 0.0 
1.02997 0.0474658 0.0 
1.00071 0.0140273 0.0 
1.03702 -0.0209834 0.0 
1.05842 -0.0113791 0.0 
1.08679 0.190122 0.0 
1.06794 -0.0738406 0.0 
0.123241 0.0120423 0.0 
1.05474 0.0221449 0.0 
0.454507 -0.0393299 0.0 
0.358481 0.0022699 0.0 
0.977058 0.197043 0.0 
0.0676615 -0.00617399 0.0 
1.03778 -0.0144278 0.0 
1.02996 -0.160918 0.0 
1.0509 0.0490068 0.0 
1.13892 0.122401 0.0 
0.998748 0.0197284 0.0 
0.0761787 0.00606027 0.0 
0.99891 0.0188044 0.0 
0.407952 -0.0173819 0.0 
0.998736 0.0148085 0.0 
1.04657 0.0267901 0.0 
0.985105 0.0247332 0.0 
0.973339 0.0345749 0.0 
1.05637 0.0379028 0.0 
0.998564 0.0160634 0.0 
0.922396 -0.0796558 0.0 
0.98411 0.0211319 0.0 
1.06738 0.0199206 0.0 
0.981524 0.0255917 0.0 
1.03341 0.0333698 0.0 
1.03923 -0.171402 0.0 
0.998847 0.016358 0.0 
1.0591 -0.00720678 0.0 
0.919786 -0.0860383 0.0 
1.03444 0.0703462 0.0 
1.04678 -0.00208729 0.0 
1.06756 -0.00759542 0.0 
0.916057 -0.0818125 0.0 
1.13246 0.114248 0.0 
0.999158 0.0171476 0.0 
0.927305 -0.0728631 0.0 
0.921826 -0.0827461 0.0 
0.998606 0.0128542 0.0 
1.04144 -0.00520258 0.0 
0.999403 0.0196384 0.0 
0.938478 0.151935 0.0 
1.13165 0.0511965 0.0 
0.998677 0.0151675 0.0 
0.628467 0.110663 0.0 
1.00604 0.0346046 0.0 
0.86293 0.0455312 0.0 
0.99887 0.0195236 0.0 
0.999211 0.0190537 0.0 
1.04537 -0.00660132 0.0 
0.97386 0.0240721 0.0 
1.07454 -0.0413243 0.0 
1.14042 0.200954 0.0 
1.10795 -0.129487 0.0 
0.866489 -0.0312074 0.0 
0.937946 0.0520724 0.0 
0.87464 0.0164555 0.0 
1.04411 -0.00723664 0.0 
0.92368 -0.0732027 0.0 
0.932849 -0.0626895 0.0 
0.918402 -0.0743333 0.0 
0.57668 0.110873 0.0 
1.05051 -0.00741368 0.0 
0.109366 0.0176103 0.0 
1.03532 0.265584 0.0 
1.03937 -0.0174921 0.0 
1.04418 -0.0112371 0.0 
1.04896 -0.0145229 0.0 
0.0900533 0.0250363 0.0 
1.14246 0.106023 0.0 
1.04388 -0.0295274 0.0 
1.04816 0.0164441 0.0 
0.941208 0.00861286 0.0 
1.03367 -0.0173208 0.0 
1.03564 -0.0131266 0.0 
0.998707 0.0159416 0.0 
1.04097 -0.0347445 0.0 
0.898172 -0.0655494 0.0 
0.999017 0.0150621 0.0 
0.909271 -0.0858323 0.0 
0.168145 -0.0127566 0.0 
0.887385 -0.0840091 0.0 
0.932371 0.0161506 0.0 
1.20132 0.0507496 0.0 
1.04393 0.0197279 0.0 
0.241973 -0.0380016 0.0 
1.09654 0.0884652 0.0 
0.998519 0.0161464 0.0 
1.01823 0.223681 0.0 
0.950966 0.177718 0.0 
0.998845 0.0176065 0.0 
0.999292 0.0160138 0.0 
0.998717 0.0184264 0.0 
0.505139 0.00298987 0.0 
0.967545 0.0252032 0.0 
0.965239 0.0227003 0.0 
0.411761 0.13574 0.0 
0.976383 0.0410566 0.0 
0.939904 -0.0445019 0.0 
0.299354 0.101244 0.0 
0.373676 0.184509 0.0 
1.06193 0.297412 0.0 
1.06839 -0.103372 0.0 
0.967008 0.0196087 0.0 
1.13921 0.0516055 0.0 
0.256959 0.000801192 0.0 
1.00075 0.0116533 0.0 
0.990318 0.0338626 0.0 
1.00955 0.0350044 0.0 
0.983705 0.0312139 0.0 
0.999597 0.016751 0.0 
0.918452 0.0214164 0.0 
1.0579 -0.13191 0.0 
0.918635 0.0758687 0.0 
0.908247 0.132261 0.0 
1.04659 0.0134421 0.0 
1.193 0.0476079 0.0 
0.829375 0.11687 0.0 
1.05531 -0.0343237 0.0 
0.535222 0.0229282 0.0 
0.975673 0.0436932 0.0 
0.932263 -0.0503883 0.0 
0.699237 0.194628 0.0 
0.897905 0.339228 0.0 
0.987218 0.0263994 0.0 
1.06535 -0.0142518 0.0 
0.967028 0.086568 0.0 
1.11233 -0.0772856 0.0 
1.11198 0.0640051 0.0 
0.983081 0.032871 0.0 
0.956104 0.0121424 0.0 
1.19336 0.0525809 0.0 
0.999134 0.0231411 0.0 
1.07627 0.284537 0.0 
1.16776 0.0400909 0.0 
1.12272 -0.0783157 0.0 
0.994053 0.0102024 0.0 
1.01834 0.0455681 0.0 
0.937208 0.00749925 0.0 
0.997212 0.00851987 0.0 
1.01661 0.284834 0.0 
1.05493 -0.0223271 0.0 
0.995401 0.152094 0.0 
0.924855 -0.00660848 0.0 
1.03692 0.0316858 0.0 
0.992773 0.0288771 0.0 
1.03711 0.0164912 0.0 
0.962643 0.0258977 0.0 
0.984938 0.0284053 0.0 
1.03694 0.00761287 0.0 
1 0 0.0 
1.06812 -0.00702035 0.0 
0.984659 0.0300594 0.0 
1.04489 -0.00148245 0.0 
0.98751 0.0281903 0.0 
1.03154 -0.0318328 0.0 
1.03367 -0.0279961 0.0 
1.19198 0.102371 0.0 
0.984733 0.0264268 0.0 
1.12832 -0.0829216 0.0 
0.911691 -0.146925 0.0 
1.06645 -0.00285153 0.0 
1.12659 -0.11537 0.0 
1.14772 0.0542269 0.0 
0.931086 0.0274271 0.0 
1.03652 0.00122871 0.0 
0.995909 0.0173336 0.0 
0.979654 0.0394126 0.0 
0.984001 0.0112176 0.0 
0.995478 0.0104644 0.0 
0.990023 0.0213895 0.0 
1.08643 0.169339 0.0 
0.948395 0.0246747 0.0 
0.998693 0.0177971 0.0 
1.14616 0.0615978 0.0 
1.16631 0.0437322 0.0 
0.998439 0.0170395 0.0 
0.927782 -0.0577426 0.0 
0.999073 0.0143211 0.0 
1.0421 -0.128662 0.0 
0.995001 0.017929 0.0 
1.00021 0.0111185 0.0 
0.980655 0.0284889 0.0 
0.988766 0.0284324 0.0 
0.996542 0.0215272 0.0 
0.991849 0.0302723 0.0 
0.881714 -0.105808 0.0 
1 0 0.0 
1 0 0.0 
1.03193 0.0468831 0.0 
0.995206 0.0241816 0.0 
0.202899 0.00549464 0.0 
0.0575427 0.0110771 0.0 
1.11601 0.218051 0.0 
0.956046 -0.0460472 0.0 
1.19957 0.0799911 0.0 
1.14464 0.0656237 0.0 
0.994429 0.0186387 0.0 
1.14133 0.0735315 0.0 
0.991774 0.0247253 0.0 
0.947824 -0.164154 0.0 
1 0 0.0 
1.1584 0.0372966 0.0 
0.961232 0.190356 0.0 
0.992721 0.0232297 0.0 
1.14267 -0.0859128 0.0 
1.04394 0.0135989 0.0 
1.04438 0.0152657 0.0 
0.982779 0.0291532 0.0 
0.995328 0.0114495 0.0 
1.127 0.233222 0.0 
1.11843 0.0924574 0.0 
0.994178 0.0196939 0.0 
0.135291 0.00609978 0.0 
0.958356 0.00119872 0.0 
0.992071 0.0122501 0.0 
0.995255 0.0121636 0.0 
0.324663 0.00564549 0.0 
0.985457 0.0233401 0.0 
0.948317 -0.029374 0.0 
0.953477 -0.00683356 0.0 
0.09501 -0.0107051 0.0 
1 0 0.0 
1.07169 0 0.0 
1.00744 0.166709 0.0 
1.11898 -0.146693 0.0 
0.931834 0.0359328 0.0 
1.11182 -0.130788 0.0 
0.292687 0.0059849 0.0 
0.0785 -0.00360858 0.0 
0.989604 0.0129818 0.0 
0.985594 0.0218513 0.0 
0.987393 0.0161286 0.0 
0.99163 0.0144144 0.0 
1.10677 -0.173881 0.0 
1.06723 -0.0113016 0.0 
1.07942 0.148059 0.0 
1.12148 0.0854646 0.0 
0.199165 0.0079017 0.0 
0.956551 0.0793948 0.0 
1.00052 0.0203565 0.0 
1.11005 0.257958 0.0 
0.972201 0.0326468 0.0 
1.0664 -0.0151628 0.0 
0.959198 0.0379807 0.0 
1.06594 -0.00800321 0.0 
0.449045 -0.00126649 0.0 
0.0789168 0.00923638 0.0 
0.0678547 0.0138955 0.0 
0.258473 0.0062167 0.0 
0.999805 0.0124027 0.0 
0.0821471 0.00112513 0.0 
1.05983 -0.00272888 0.0 
1.1575 -0.0435785 0.0 
1.06757 -0.0057406 0.0 
1 0 0.0 
0.999719 0.0160583 0.0 
1.06569 -6.76029e-07 0.0 
0.979031 0.0320846 0.0 
0.0953985 0.00786639 0.0 
1.0596 0.00420736 0.0 
0.0768829 -0.000100707 0.0 
1.05693 0.0117167 0.0 
0.920143 0.0281074 0.0 
1.04178 -0.000208438 0.0 
0.957235 0.0584493 0.0 
0.999883 0.0213442 0.0 
1.19503 -0.1109 0.0 
0.640802 -0.00475544 0.0 
1.03567 -0.0318665 0.0 
1.04137 -0.0372945 0.0 
1.06586 -0.0454131 0.0 
1.05466 0.00962179 0.0 
1.06691 -0.0135143 0.0 
1.18998 0.025072 0.0 
1.04137 0.0134078 0.0 
1.24578 0.0798481 0.0 
1.03511 0.0285781 0.0 
0.999921 0.0171088 0.0 
1.18321 0.105681 0.0 
1.06437 -0.0203039 0.0 
0.968855 -0.0461556 0.0 
0.947603 0.0743307 0.0 
0.944084 0.0374467 0.0 
1.01433 0.0418705 0.0 
1.13763 0.00108372 0.0 
0.928731 0.0327749 0.0 
1.00572 -0.00611076 0.0 
1.06887 0 0.0 
1.06276 -0.00419764 0.0 
0.933659 0.0545612 0.0 
1.13874 -0.164242 0.0 
0.935245 0.160902 0.0 
1.1014 -0.195265 0.0 
0.952434 -0.0201065 0.0 
1.08674 0.251797 0.0 
0.983248 0.0274531 0.0 
1.08761 0.105845 0.0 
0.782381 0.101639 0.0 
1.17526 0.10852 0.0 
0.439701 0.00236458 0.0 
1.07308 0.187304 0.0 
1.00397 0.0214665 0.0 
1.05666 0.0145437 0.0 
1.04283 0.00797058 0.0 
1.04777 -0.00167397 0.0 
1.04623 -0.000568113 0.0 
0.067314 0.0133096 0.0 
1.04171 0.00136296 0.0 
-0.0777562 0.0241296 0.0 
1.04613 -0.0379772 0.0 
1.0041 0.0350823 0.0 
1.04456 0.0085995 0.0 
1 0 0.0 
0.983234 0.0262853 0.0 
1.19273 0.0983218 0.0 
0.743542 -0.0342516 0.0 
0.999573 0.0154962 0.0 
0.991827 0.0390602 0.0 
1.05024 0.00938309 0.0 
1.05501 0.00450904 0.0 
0.939372 0.1896 0.0 
0.775179 0.130766 0.0 
1.00432 0.0185445 0.0 
1.13669 0.124247 0.0 
0.999128 0.244033 0.0 
0.999089 0.0121042 0.0 
0.986014 0.0291863 0.0 
1.05148 0.000410582 0.0 
0.937575 0.125099 0.0 
0.142277 0.0135488 0.0 
1.0505 0.00255235 0.0 
0.172 0.0986492 0.0 
1.05067 -0.00167732 0.0 
0.99658 -0.00643039 0.0 
1.01644 0.047136 0.0 
1.11603 -0.0470744 0.0 
1.0472 0.00152653 0.0 
0.956983 -0.00622497 0.0 
0.324277 0.0136346 0.0 
1.0631 -0.0236585 0.0 
0.9465 -0.00140808 0.0 
0.999781 0.0151899 0.0 
1.06056 -0.0285586 0.0 
0.941639 0.0659995 0.0 
1.19758 -0.0462955 0.0 
0.231756 -0.0146724 0.0 
0.573519 -0.00752405 0.0 
0.940999 -0.00459845 0.0 
0.963824 0.27297 0.0 
0.249516 0.0478047 0.0 
0.995829 0.316484 0.0 
0.91164 0.00067579 0.0 
1.07851 -0.0438166 0.0 
0.670704 0.00614027 0.0 
0.355232 0.116176 0.0 
1.10318 0.0717764 0.0 
0.998688 0.0122067 0.0 
0.521142 0.00601242 0.0 
0.128672 0.0353618 0.0 
0.91427 -0.0434137 0.0 
0.731482 -0.0161713 0.0 
1.03135 0.0453063 0.0 
0.998765 0.0117945 0.0 
1.02568 -0.0985654 0.0 
1.11195 -0.0350944 0.0 
1.17576 0.0281226 0.0 
0.0793574 0.0023885 0.0 
0.936113 -0.0577397 0.0 
1.03501 0.042287 0.0 
1.06696 -0.00915429 0.0 
0.937967 -0.00900083 0.0 
0.0740194 0.00784494 0.0 
0.998787 0.0127247 0.0 
1.17417 0.0324925 0.0 
1.05903 -0.0277825 0.0 
0.963222 0.216738 0.0 
1.05315 0.013996 0.0 
1.06853 -0.000842797 0.0 
1.06863 0.00394666 0.0 
0.954432 0.0377413 0.0 
1.06098 -0.0255739 0.0 
0.998912 0.0139129 0.0 
0.952154 0.00710678 0.0 
1.13579 -0.0341056 0.0 
1.05449 0.019224 0.0 
0.989337 0.00734957 0.0 
0.953335 0.0153986 0.0 
0.998951 0.0141005 0.0 
1.0579 0.00406164 0.0 
1.04109 -0.00595918 0.0 
1.06086 -0.0228256 0.0 
0.990503 0.00899617 0.0 
1.02153 0.0456384 0.0 
0.998879 0.0133455 0.0 
1.04507 -0.0273339 0.0 
1.06574 0.018225 0.0 
0.0595554 0.0205398 0.0 
0.05024 0.0133894 0.0 
1.06904 0.0141716 0.0 
0.905086 -0.0564626 0.0 
0.885544 -0.0483565 0.0 
0.874106 0.121045 0.0 
0.999396 0.0140464 0.0 
0.998847 0.0140144 0.0 
0.962784 -0.0132139 0.0 
0.964945 -0.00196847 0.0 
1.03454 0.0249039 0.0 
0.963143 0.235599 0.0 
1.06691 0.153277 0.0 
1.02973 -0.0450358 0.0 
0.0663721 0.00181418 0.0 
1.16349 0.0273846 0.0 
1.10395 0.148747 0.0 
0.998706 0.0135303 0.0 
1.01563 0.0353939 0.0 
1.11542 -0.00653572 0.0 
0.982808 0.0210382 0.0 
0.93434 0.046665 0.0 
1.03068 -0.0298468 0.0 
0.973321 0.0375597 0.0 
0.940957 0.10947 0.0 
0.933993 0.0592346 0.0 
0.783915 -0.031014 0.0 
0.962823 0.00715553 0.0 
0.785509 -0.0485075 0.0 
1.00099 0.0182834 0.0 
1.03195 0.0434079 0.0 
0.953757 -0.0102285 0.0 
0.961518 -0.0010113 0.0 
0.922456 0.0343965 0.0 
1.0994 0.250187 0.0 
0.972304 0.0061107 0.0 
0.940351 0.292322 0.0 
0.94529 0.0329581 0.0 
0.974608 0.227172 0.0 
0.84801 0.286348 0.0 
0.995192 0.0075579 0.0 
1.00103 0 0.0 
0.998817 0.0121852 0.0 
0.977253 0.00155781 0.0 
0.889104 0.154603 0.0 
0.128534 0.00870368 0.0 
1.01081 0.0434368 0.0 
0.980752 0.00718238 0.0 
0.999401 0.0125833 0.0 
0.915487 -0.071907 0.0 
0.916459 0.0331867 0.0 
1.19416 -0.034772 0.0 
0.9987 0.0124583 0.0 
0.941371 0.0714242 0.0 
0.736839 -0.0759539 0.0 
1.0334 -0.0239894 0.0 
0.936051 0.0639867 0.0 
0.995274 0.0162767 0.0 
0.944326 0.0276958 0.0 
0.991056 0.0201229 0.0 
0.0784435 0.0144733 0.0 
0.727945 -0.0654779 0.0 
1.04338 -0.00375806 0.0 
1.15819 0.0817357 0.0 
1.13699 -0.0224386 0.0 
0.997705 0.0107471 0.0 
0.98217 0.0186705 0.0 
1.00101 0.203116 0.0 
1.11376 0.159531 0.0 
0.577366 0.0956587 0.0 
0.950676 0.189819 0.0 
0.981545 0.0190388 0.0 
0.250657 -0.0239927 0.0 
0.982542 0.0219709 0.0 
0.997291 0.0128057 0.0 
1.00032 0.0197199 0.0 
0.196482 -0.0154943 0.0 
0.156295 -0.00603744 0.0 
0.981735 0.0302624 0.0 
0.333869 0.0580458 0.0 
1.19178 0.0942253 0.0 
1.01003 0.0429267 0.0 
0.980895 0.0325345 0.0 
0.999687 0.0196165 0.0 
0.977905 0.0112856 0.0 
0.930126 0.0690525 0.0 
0.976569 0.0258744 0.0 
0.851389 0.285556 0.0 
0.456323 -0.0228783 0.0 
0.179067 -0.0089617 0.0 
0.968159 0.0135874 0.0 
0.974774 0.0121999 0.0 
1.05375 0.20593 0.0 
0.26233 -0.0212448 0.0 
0.939761 0.0211318 0.0 
1.03389 -0.0393036 0.0 
0.982359 0.24663 0.0 
0.999246 0.0136825 0.0 
0.922334 0.0822081 0.0 
0.972332 0.0311686 0.0 
0.929812 0.143882 0.0 
0.954095 0.157328 0.0 
1.00811 0.25613 0.0 
0.673542 -0.019118 0.0 
0.937135 -0.0524644 0.0 
1.11697 0.0588523 0.0 
0.464986 0.0937435 0.0 
0.926201 -0.0597659 0.0 
0.076487 0.0165787 0.0 
0.898817 -0.0127955 0.0 
0.74324 0.136324 0.0 
0.914842 -0.0664897 0.0 
0.921965 -0.0562301 0.0 
0.610375 0.165214 0.0 
1.04694 0.00651974 0.0 
0.940491 0.174067 0.0 
0.87942 -0.00481217 0.0 
0.928109 -0.0538267 0.0 
1.04028 -0.00624585 0.0 
0.336634 0.0414681 0.0 
1.03715 -0.00943756 0.0 
0.865825 0.00755264 0.0 
0.894035 0.217771 0.0 
1.04812 -0.00198766 0.0 
0.906333 -0.0881624 0.0 
0.917057 0.183598 0.0 
0.242337 -0.0238956 0.0 
1.13061 0.0616471 0.0 
1.03042 0.171608 0.0 
0.829517 0.380976 0.0 
1.10163 0.166638 0.0 
1.06227 0.26101 0.0 
0.922611 -0.0349061 0.0 
0.699314 -0.0912259 0.0 
0.977676 0.0335099 0.0 
0.514031 0.0619672 0.0 
0.9182 -0.0527011 0.0 
1.04601 0.0664267 0.0 
0.133556 0.00951036 0.0 
1.04306 0.264704 0.0 
1.05868 0.040425 0.0 
0.878712 0.105687 0.0 
1.00501 0.0219918 0.0 
0.892532 0.06727 0.0 
0.0881154 0.0191065 0.0 
0.853007 0.0767196 0.0 
0.949331 0.0370881 0.0 
0.947241 0.00395019 0.0 
1.17355 -0.0400046 0.0 
0.762411 0.335727 0.0 
0.847347 0.0894562 0.0 
1.02895 0.0736526 0.0 
1.0815 -0.0960786 0.0 
0.920865 -0.0469255 0.0 
1.03819 0.272881 0.0 
0.964676 0.016998 0.0 
0.995734 0.0404338 0.0 
0.910051 0.0773846 0.0 
0.924326 0.113145 0.0 
0.910513 0.0356424 0.0 
1.00892 0.0275353 0.0 
0.91957 0.106429 0.0 
0.916864 0.221468 0.0 
0.999177 0.0127682 0.0 
1.09144 -0.071705 0.0 
0.258954 -0.0285221 0.0 
1.0516 0.252345 0.0 
0.965646 0.203837 0.0 
0.806696 0.151604 0.0 
0.826643 0.0384255 0.0 
0.886084 0.0300449 0.0 
1.04095 0.30608 0.0 
0.999556 0.0174555 0.0 
1.1244 0.14209 0.0 
1.0324 0.227525 0.0 
0.886105 -0.0482821 0.0 
0.922777 -0.00185844 0.0 
0.85797 0.158859 0.0 
0.910792 0.0208234 0.0 
0.884959 0.0150156 0.0 
0.932152 -0.0461383 0.0 
0.93365 0.207928 0.0 
0.995666 0.0304541 0.0 
0.999555 0.0149584 0.0 
0.0785406 0.0237238 0.0 
0.0785695 0.0196873 0.0 
0.91275 0.0279592 0.0 
0.523514 0.153517 0.0 
1.03838 -0.00797407 0.0 
0.92153 -0.0163429 0.0 
0.977958 -0.000939545 0.0 
0.902396 0.0768431 0.0 
0.841585 0.00688536 0.0 
1.08142 -0.0680973 0.0 
0.954984 0.00806805 0.0 
0.975483 0.00919266 0.0 
1.08314 0.26892 0.0 
0.17652 -0.00661872 0.0 
0.929815 0.300816 0.0 
0.972959 0.00269741 0.0 
0.98892 0.0544286 0.0 
1.06822 -0.22962 0.0 
0.968928 0.00475101 0.0 
0.961652 0.0126634 0.0 
0.997699 0.0133631 0.0 
1.03761 -0.00916429 0.0 
0.790722 0.109172 0.0 
0.904293 0.018557 0.0 
0.990904 0.0054876 0.0 
1.02766 -0.183097 0.0 
0.995152 0.0155519 0.0 
0.935371 0.0242862 0.0 
0.806116 0.168528 0.0 
0.949935 -0.00847294 0.0 
0.998114 0.0102245 0.0 
0.938642 0.00480391 0.0 
0.187663 0.128346 0.0 
0.943765 -0.00837782 0.0 
1.06482 -0.0104833 0.0 
0.953145 0.289367 0.0 
0.0635633 0.0067906 0.0 
1.10027 0.256352 0.0 
0.987973 0.0149875 0.0 
0.89022 -0.124202 0.0 
0.968821 0.00190453 0.0 
0.959562 0.00923845 0.0 
0.959815 0.00461743 0.0 
0.541472 0.134632 0.0 
0.961859 0.00192426 0.0 
0.955949 -0.0135771 0.0 
0.648559 0.184236 0.0 
1.03435 -0.0129627 0.0 
1.03527 0.0459732 0.0 
0.994826 0.266717 0.0 
0.980989 0.0209629 0.0 
0.975409 0.0292017 0.0 
0.964629 0.00400908 0.0 
0.893276 0.013067 0.0 
0.958907 -0.0178918 0.0 
0.108038 0.000735593 0.0 
0.968682 -0.000169654 0.0 
1.05976 0.0160313 0.0 
0.875821 0.168473 0.0 
0.996471 0.0121488 0.0 
1.06586 0.0266659 0.0 
1.05792 0.0963699 0.0 
1.10178 -0.071848 0.0 
1.09677 0.10665 0.0 
0.976515 -0.00291385 0.0 
0.876444 0.183443 0.0 
0.996616 0.0145717 0.0 
0.996941 0.011222 0.0 
0.889641 -0.0411542 0.0 
0.978657 0.0259532 0.0 
1.16326 -0.227459 0.0 
0.631447 0.0181813 0.0 
0.941925 0.0417913 0.0 
1.01645 0.303432 0.0 
0.906737 0.353655 0.0 
0.838766 0.132428 0.0 
1.15994 0.0786368 0.0 
0.153376 0.133881 0.0 
1.01677 0.290427 0.0 
1.06475 0.266908 0.0 
1.03919 -0.00632242 0.0 
0.938666 0.0946288 0.0 
0.0441216 0.00719614 0.0 
1.17527 0.149727 0.0 
0.977759 0.0320755 0.0 
0.909764 0.122464 0.0 
1.12511 0.221316 0.0 
0.851135 0.124619 0.0 
-0.0447106 -0.0186807 0.0 
0.978856 0.0301968 0.0 
0.924969 0.0739389 0.0 
0.740191 0.14078 0.0 
0.979697 0.0269217 0.0 
0.911491 0.150595 0.0 
0.995862 0.012628 0.0 
0.902923 0.101826 0.0 
0.979188 0.0280982 0.0 
0.853742 0.0558535 0.0 
0.830824 0.022656 0.0 
0.903933 0.164663 0.0 
0.998755 0.0114732 0.0 
0.968893 -0.00465969 0.0 
0.98016 0.0252544 0.0 
0.999083 0.0177274 0.0 
0.962732 -0.0046923 0.0 
0.961708 -0.00837904 0.0 
0.966191 -0.00414605 0.0 
0.938156 -0.0415157 0.0 
0.925763 0.058382 0.0 
0.926332 0.0884568 0.0 
1.04127 -0.0017484 0.0 
0.989753 0.0322213 0.0 
1.06452 0.0278131 0.0 
0.999183 0.0146212 0.0 
1.07816 -0.0074776 0.0 
1.00539 0.0805075 0.0 
0.949664 0.0134002 0.0 
0.976901 0.0272663 0.0 
1.0493 -0.16149 0.0 
1.09961 0.244348 0.0 
1.12363 0.232736 0.0 
0.933265 -0.0322113 0.0 
0.999076 0.0141463 0.0 
0.95116 0.0110454 0.0 
0.99636 0.0137171 0.0 
0.979536 0.00545281 0.0 
1.05512 0.00932984 0.0 
1.04811 -0.172172 0.0 