<VTKFile type="UnstructuredGrid" version="0.1" byte_order="LittleEndian">
  <UnstructuredGrid>
    <Piece NumberOfPoints="9712" NumberOfCells="19403">
      <Points>
        <DataArray type = "Float64" NumberOfComponents="3" format="ascii">
-5 -7 0.0 
15.5 -7 0.0 
15.5 7 0.0 
-5 7 0.0 
-1.6546 1.77742 0.0 
-2.13867 1.86504 0.0 
-1.83467 1.79143 0.0 
1.47969 -2.21179 0.0 
1.36003 -2.38618 0.0 
1.4346 -2.45048 0.0 
-2.04214 1.94165 0.0 
-0.20425 1.17338 0.0 
-2.07648 1.81911 0.0 
-2.00827 1.89081 0.0 
-2.05492 1.98872 0.0 
0.192693 0.536219 0.0 
0.154285 1.75648 0.0 
1.1379 -1.62057 0.0 
-2.11226 1.96977 0.0 
-1.74119 1.75327 0.0 
1.14499 -1.58184 0.0 
-1.94373 2.37229 0.0 
1.50619 -0.664239 0.0 
1.99658 -1.76705 0.0 
1.7229 -1.18344 0.0 
-1.97759 2.52091 0.0 
-0.768046 0.387136 0.0 
1.32657 -1.43969 0.0 
1.90142 0.24821 0.0 
-0.93264 1.51038 0.0 
1.09557 0.967223 0.0 
0.627111 0.757352 0.0 
-2.05707 2.31394 0.0 
1.34027 -2.45136 0.0 
-0.725097 0.397516 0.0 
-0.666094 2.30428 0.0 
-0.73829 -0.279965 0.0 
1.73336 -1.08822 0.0 
1.88466 -1.24421 0.0 
1.50539 -1.23752 0.0 
1.65978 -1.30759 0.0 
-0.0409718 0.542603 0.0 
1.6005 -1.1227 0.0 
1.78439 -0.941488 0.0 
1.86015 -1.54236 0.0 
1.49308 -1.40058 0.0 
2.34892 -1.47149 0.0 
2.13832 -1.3246 0.0 
1.73061 0.751302 0.0 
-0.580328 0.526903 0.0 
1.51013 -2.1595 0.0 
-1.65424 3.45779 0.0 
-1.51397 2.46352 0.0 
1.42773 -2.17867 0.0 
0.304353 0.497878 0.0 
2.24628 0.228293 0.0 
1.51258 -2.27933 0.0 
-1.60346 3.44299 0.0 
-1.71408 2.36227 0.0 
2.17421 0.530405 0.0 
2.42 0.316451 0.0 
-1.63642 3.31911 0.0 
2.53942 -0.995036 0.0 
0.750003 0.810439 0.0 
2.04736 0.40918 0.0 
1.19615 -1.50641 0.0 
2.13474 0.494063 0.0 
0.547924 0.306722 0.0 
-0.2059 0.361394 0.0 
2.2127 0.547693 0.0 
1.41442 -0.597105 0.0 
1.52233 -1.46252 0.0 
-1.84114 2.53924 0.0 
-5 -2.53894 0.0 
2.32127 0.371156 0.0 
-1.69186 3.33379 0.0 
-0.964779 0.566136 0.0 
-1.81311 2.48387 0.0 
-1.78557 3.38304 0.0 
1.48278 0.914136 0.0 
2.51531 -1.89689 0.0 
1.20982 -0.330514 0.0 
0.408434 0.319657 0.0 
0.95023 0.60993 0.0 
-0.752349 0.440796 0.0 
-0.998248 0.564019 0.0 
-1.73165 3.36299 0.0 
1.24353 -1.49063 0.0 
0.942095 0.817189 0.0 
-1.77816 2.47096 0.0 
2.48183 -1.95479 0.0 
1.33574 -1.77854 0.0 
0.823335 1.12085 0.0 
-0.36308 0.598468 0.0 
0.745466 0.783414 0.0 
-1.88344 2.8521 0.0 
-1.79794 3.52221 0.0 
3.0087 0.272815 0.0 
-1.81486 2.66014 0.0 
0.375911 -0.403668 0.0 
-0.68323 0.487288 0.0 
-0.34187 -0.274923 0.0 
-0.293875 -0.201368 0.0 
1.61018 -1.767 0.0 
-0.448275 -0.347267 0.0 
-1.08687 0.352015 0.0 
1.29257 -1.76345 0.0 
1.67658 -1.49551 0.0 
1.19193 0.533009 0.0 
1.21582 -1.91654 0.0 
-0.36438 -0.346225 0.0 
-0.92534 0.330346 0.0 
2.3836 0.287756 0.0 
1.68841 0.639887 0.0 
1.59001 -1.89458 0.0 
1.14818 -1.92143 0.0 
1.28996 -2.19426 0.0 
1.37603 -1.8763 0.0 
1.23834 -2.09141 0.0 
1.11702 -2.06287 0.0 
0.691829 0.463808 0.0 
1.46523 -2.03459 0.0 
-0.123547 0.424486 0.0 
-1.3311 2.12174 0.0 
1.08169 -1.90074 0.0 
1.87975 -2.15971 0.0 
1.10131 -1.78593 0.0 
1.13722 0.534683 0.0 
1.42465 -1.59031 0.0 
-1.45435 2.47344 0.0 
1.41998 -1.98207 0.0 
0.463917 1.8787 0.0 
-1.72896 2.89571 0.0 
1.12419 -1.84975 0.0 
1.59054 -1.20634 0.0 
0.46124 0.621002 0.0 
0.806438 -1.00204 0.0 
2.1804 0.349761 0.0 
2.21142 -1.6418 0.0 
1.10152 -0.274558 0.0 
2.23388 0.387302 0.0 
0.137769 0.567007 0.0 
1.88736 0.267391 0.0 
1.26821 -1.94267 0.0 
0.21033 -0.605707 0.0 
2.61094 -1.50046 0.0 
0.819837 0.743337 0.0 
-1.4303 2.07799 0.0 
1.82013 0.322126 0.0 
-1.47649 2.2099 0.0 
1.15745 -0.274223 0.0 
-1.81198 2.24994 0.0 
2.34337 -1.67775 0.0 
-1.13329 1.37877 0.0 
-0.828215 1.05292 0.0 
2.46752 -1.53452 0.0 
-1.69915 2.18529 0.0 
-0.404416 -0.286271 0.0 
-1.23501 1.31766 0.0 
2.11757 -1.50659 0.0 
-1.08535 1.28274 0.0 
2.58548 -1.70783 0.0 
0.24729 -0.572345 0.0 
-1.66963 2.25319 0.0 
1.58322 -1.62308 0.0 
-0.367923 -0.306026 0.0 
0.391521 1.44485 0.0 
1.88977 -2.46319 0.0 
1.5943 -1.53613 0.0 
-0.357143 -0.23651 0.0 
0.82621 0.80563 0.0 
-1.59261 2.31884 0.0 
-0.47244 -0.307516 0.0 
-0.40334 -0.326688 0.0 
-2.00063 2.11543 0.0 
1.55514 -1.95078 0.0 
-1.40431 2.26352 0.0 
-0.0265928 0.573714 0.0 
1.17093 1.10579 0.0 
-1.77907 2.22111 0.0 
0.682788 0.329642 0.0 
-0.54475 2.15572 0.0 
-0.288592 0.289433 0.0 
-1.43199 2.16349 0.0 
-1.45029 2.25134 0.0 
1.5535 -1.79992 0.0 
-1.06406 1.08381 0.0 
1.72954 1.44966 0.0 
0.582806 0.515814 0.0 
0.582876 -0.679913 0.0 
1.32351 -0.355916 0.0 
-0.47505 0.577092 0.0 
-0.371167 0.227715 0.0 
1.52235 -1.8529 0.0 
-0.429822 -0.244811 0.0 
-0.53237 -0.24648 0.0 
-0.393983 -0.210364 0.0 
0.652895 0.317361 0.0 
1.55812 -1.70765 0.0 
1.63021 0.325622 0.0 
0.442731 0.358729 0.0 
1.22925 -1.85192 0.0 
1.43517 -1.79082 0.0 
1.39317 -1.6984 0.0 
1.62965 0.295952 0.0 
0.905462 0.793465 0.0 
1.04036 -1.64811 0.0 
2.1131 -1.72466 0.0 
-0.743911 0.369492 0.0 
1.14427 -1.99314 0.0 
1.26033 -2.0209 0.0 
-1.70955 2.07308 0.0 
0.910023 -1.62976 0.0 
-0.313059 -0.0954838 0.0 
-1.77334 2.3988 0.0 
-0.311958 -0.24042 0.0 
2.53315 0.325608 0.0 
-0.273728 -0.226719 0.0 
-0.646401 0.379627 0.0 
1.52426 0.616074 0.0 
2.21703 -1.79499 0.0 
2.71108 0.312216 0.0 
0.759924 1.093 0.0 
-1.69271 2.12368 0.0 
0.255794 0.540969 0.0 
0.0534699 0.562158 0.0 
-1.5679 2.22408 0.0 
-1.66906 2.45165 0.0 
-1.51895 2.09449 0.0 
2.16948 0.408238 0.0 
-0.818806 0.680638 0.0 
-0.826868 0.642087 0.0 
0.519855 0.276992 0.0 
-0.716682 1.18602 0.0 
-0.649974 -0.148775 0.0 
0.457368 0.256619 0.0 
0.517407 0.248194 0.0 
0.327129 0.39802 0.0 
0.533249 -0.878832 0.0 
-0.870735 0.634904 0.0 
1.19219 1.07557 0.0 
2.35922 0.366028 0.0 
-1.66911 3.66723 0.0 
-0.857603 1.54934 0.0 
-0.379189 2.30131 0.0 
-0.941007 1.36523 0.0 
-1.58662 2.49682 0.0 
-0.545297 0.352587 0.0 
0.327944 -0.744683 0.0 
-0.312756 0.524741 0.0 
-0.107843 0.506233 0.0 
2.13378 -2.36584 0.0 
1.52689 0.686953 0.0 
-0.119983 0.327909 0.0 
1.02161 -1.53072 0.0 
1.51507 0.39695 0.0 
-0.674484 1.02605 0.0 
-0.564724 -0.148435 0.0 
0.409388 0.290913 0.0 
0.252349 0.30842 0.0 
-1.09282 1.45998 0.0 
1.45674 -1.54484 0.0 
-0.266777 0.782169 0.0 
0.91327 -0.874389 0.0 
1.01208 1.13309 0.0 
-0.897136 1.35063 0.0 
-0.846484 0.489353 0.0 
1.47563 0.663768 0.0 
-1.22282 2.05021 0.0 
0.348906 0.416714 0.0 
1.41913 0.964648 0.0 
0.933289 -0.839038 0.0 
-1.85066 1.40221 0.0 
0.142477 1.99435 0.0 
-0.717809 0.341194 0.0 
-2.21177 1.41584 0.0 
0.396571 0.350929 0.0 
1.25171 -1.60721 0.0 
0.736798 0.393502 0.0 
-0.661427 0.19031 0.0 
2.18751 -2.32769 0.0 
-1.00908 1.6747 0.0 
2.21416 -2.07269 0.0 
-0.779194 0.642011 0.0 
-1.02312 1.3939 0.0 
2.08809 -2.24876 0.0 
-5 -4.48794 0.0 
1.61792 -1.46215 0.0 
-0.974627 1.38947 0.0 
1.81166 -2.48446 0.0 
-1.03635 1.47474 0.0 
0.869004 -1.74424 0.0 
0.956579 -1.78598 0.0 
1.07495 0.540689 0.0 
-1.08005 1.37763 0.0 
0.914755 -0.803058 0.0 
0.611759 -0.305322 0.0 
1.70043 -1.41356 0.0 
0.75708 -0.631542 0.0 
1.21215 1.01979 0.0 
-0.586902 0.440014 0.0 
1.9251 -2.56336 0.0 
-1.58261 1.91091 0.0 
-0.746541 1.26087 0.0 
-1.49915 1.13657 0.0 
-1.46675 0.971536 0.0 
-1.05881 0.930935 0.0 
0.71826 0.415078 0.0 
-0.701697 0.526982 0.0 
-1.56194 2.05157 0.0 
1.15988 0.991244 0.0 
1.38676 0.949615 0.0 
-1.61697 2.02689 0.0 
1.13748 -0.357331 0.0 
-1.8456 2.04561 0.0 
0.253686 -0.756334 0.0 
-1.53603 1.86509 0.0 
-1.43465 0.924137 0.0 
-1.00273 1.27416 0.0 
-1.03063 1.5132 0.0 
-1.32483 1.94769 0.0 
-0.965552 1.61445 0.0 
-0.239859 -0.245939 0.0 
-5 3.01776 0.0 
-5 -0.248741 0.0 
0.517491 1.87079 0.0 
-1.18776 1.8875 0.0 
2.27458 0.36201 0.0 
1.9794 0.331487 0.0 
0.503086 0.510306 0.0 
1.26387 -0.370702 0.0 
1.24483 0.550197 0.0 
1.12871 0.979556 0.0 
-1.48659 1.83259 0.0 
1.0672 0.958366 0.0 
-1.16856 1.61214 0.0 
-0.218637 -0.230696 0.0 
-5 1.81431 0.0 
1.37014 1.04658 0.0 
0.0950623 0.557621 0.0 
-1.23613 1.67303 0.0 
0.953731 -0.709843 0.0 
2.07568 -1.85385 0.0 
2.10836 -1.82014 0.0 
-0.994952 1.33552 0.0 
-1.86986 1.52312 0.0 
0.515812 0.447542 0.0 
0.842446 0.992035 0.0 
-1.42353 1.8223 0.0 
2.091 0.354014 0.0 
-0.937663 0.401428 0.0 
-1.69305 1.41997 0.0 
-1.82465 1.55127 0.0 
2.15192 0.384657 0.0 
-1.17972 1.37998 0.0 
-0.718866 -0.0130647 0.0 
-0.927867 0.290435 0.0 
1.56509 0.300406 0.0 
-5 -3.04052 0.0 
9.98027 -7 0.0 
0.176009 0.694641 0.0 
0.597997 -0.559941 0.0 
-0.546583 0.4849 0.0 
0.602022 -0.657834 0.0 
2.17737 0.379672 0.0 
1.89809 0.287017 0.0 
-1.58883 1.35796 0.0 
-1.2284 1.37063 0.0 
-1.43937 1.35342 0.0 
-1.59664 1.47263 0.0 
0.577431 -0.368705 0.0 
1.5263 -1.51093 0.0 
0.479666 0.796509 0.0 
0.894995 1.01463 0.0 
2.22312 0.363016 0.0 
-0.320562 0.726481 0.0 
-1.30188 2.41386 0.0 
0.43802 0.434693 0.0 
-0.761697 0.762024 0.0 
1.45688 -1.49591 0.0 
-0.65072 0.676835 0.0 
1.6097 -1.41509 0.0 
2.25768 0.399237 0.0 
1.85518 0.299709 0.0 
2.14618 0.290757 0.0 
2.25222 0.371677 0.0 
-1.93063 2.91367 0.0 
1.52717 0.319618 0.0 
1.67964 -1.62237 0.0 
1.35962 -0.439169 0.0 
1.63007 -1.54335 0.0 
-5 -0.764504 0.0 
-1.61377 2.62271 0.0 
1.73865 -1.57725 0.0 
-0.908306 1.23669 0.0 
1.60766 0.330292 0.0 
1.82509 -1.63054 0.0 
1.90521 0.312457 0.0 
1.98719 -1.6488 0.0 
-0.528791 0.39225 0.0 
1.94978 -2.39003 0.0 
-0.472559 0.718465 0.0 
-1.28058 2.26572 0.0 
0.881581 -0.556282 0.0 
2.26369 0.42542 0.0 
0.917309 -1.69962 0.0 
0.853954 -1.60945 0.0 
1.30086 -0.404316 0.0 
1.99565 -2.46852 0.0 
1.49445 -1.47573 0.0 
1.68285 0.863315 0.0 
2.03074 -2.37549 0.0 
2.52279 -0.506167 0.0 
2.56049 -1.76899 0.0 
-1.52889 2.56597 0.0 
2.81136 -0.570221 0.0 
1.3688 -1.46095 0.0 
1.29524 -0.373946 0.0 
-0.350504 0.671928 0.0 
-0.590282 0.564035 0.0 
-0.054366 2.16706 0.0 
1.50819 1.22548 0.0 
-0.548222 0.453941 0.0 
2.19936 -2.5207 0.0 
12.2704 -7 0.0 
1.6811 -1.36761 0.0 
-0.449261 0.559535 0.0 
0.537017 -0.527614 0.0 
-0.00733391 0.553304 0.0 
0.494109 -0.356396 0.0 
-0.7939 0.0827441 0.0 
0.39888 0.467333 0.0 
-1.04288 1.34095 0.0 
0.605019 1.02824 0.0 
0.847559 0.374727 0.0 
1.00336 0.618307 0.0 
2.1955 0.399186 0.0 
0.656973 0.401158 0.0 
-0.998431 2.73564 0.0 
[...]
<PointData>
  <DataArray type = "Float64" Name="VitesseP1" NumberOfComponents="3" format="ascii">
1 0 0.0 
1.08803 0 0.0 
1.03214 0 0.0 
1 0 0.0 
0.994587 0.0157171 0.0 
0.996889 0.0110757 0.0 
0.995468 0.0135383 0.0 
1.04186 -0.0034097 0.0 
1.04376 -0.00474687 0.0 
1.04913 -0.00419586 0.0 
0.997733 0.0120021 0.0 
0.986555 0.0723561 0.0 
0.996583 0.0114043 0.0 
0.996792 0.0121908 0.0 
0.998893 0.0120061 0.0 
0.992568 0.217758 0.0 
1.01964 0.053382 0.0 
1.04993 -0.0253906 0.0 
0.998818 0.0114285 0.0 
0.995004 0.014458 0.0 
1.05504 -0.0263221 0.0 
0.998819 0.0133391 0.0 
1.1602 -0.0246125 0.0 
1.04692 0.0125231 0.0 
1.06349 -0.00111662 0.0 
0.99878 0.0129264 0.0 
0.944615 0.00865099 0.0 
1.06321 -0.0213082 0.0 
0.0659333 0.0027896 0.0 
0.988774 0.0312295 0.0 
1.14226 0.0661756 0.0 
1.11011 0.141356 0.0 
0.998815 0.0123475 0.0 
1.03395 -0.0176537 0.0 
0.941464 0.0122308 0.0 
1.0053 0.0301864 0.0 
0.937033 -0.0512724 0.0 
1.08446 -0.000831015 0.0 
1.05635 0.00951999 0.0 
1.05419 -0.0148003 0.0 
1.05709 -0.00429758 0.0 
0.9271 0.15136 0.0 
1.07503 -0.0102105 0.0 
1.12614 0.00274012 0.0 
1.0681 0.00757501 0.0 
1.06369 -0.0130628 0.0 
1.06272 0.0347821 0.0 
1.05728 0.024947 0.0 
1.19966 0.0250334 0.0 
0.939643 0.0355198 0.0 
1.04069 -0.00334072 0.0 
1.00248 0.0123058 0.0 
0.999742 0.017479 0.0 
1.04014 -0.00497224 0.0 
1.03807 0.242714 0.0 
0.0302976 0.0150746 0.0 
1.04345 -0.00238604 0.0 
1.0027 0.0127097 0.0 
0.999036 0.0155854 0.0 
1.17394 -0.0082498 0.0 
0.167558 -0.0126847 0.0 
1.00235 0.0129799 0.0 
1.09465 0.0612929 0.0 
1.12292 0.119709 0.0 
0.579183 0.00372241 0.0 
1.0609 -0.0262098 0.0 
1.08645 -0.00455294 0.0 
0.557966 0.134595 0.0 
0.86295 0.0853022 0.0 
1.19252 -0.0137582 0.0 
1.20196 -0.0362869 0.0 
1.06699 -0.0107067 0.0 
0.998987 0.0140627 0.0 
1 0 0.0 
0.334041 -0.0178143 0.0 
1.00212 0.0125535 0.0 
0.968167 0.0105378 0.0 
0.999009 0.0144152 0.0 
1.00175 0.0117283 0.0 
1.17377 0.0328332 0.0 
1.03754 0.0237588 0.0 
0.756662 -0.039863 0.0 
0.949459 0.262795 0.0 
1.17365 0.113736 0.0 
0.946251 0.0141741 0.0 
0.969976 0.00883982 0.0 
1.00203 0.0121619 0.0 
1.06224 -0.0244067 0.0 
1.14359 0.0960859 0.0 
0.999073 0.0147618 0.0 
1.04389 0.0280958 0.0 
1.04297 -0.0138964 0.0 
1.09633 0.0785519 0.0 
0.935632 0.0698785 0.0 
1.12529 0.123853 0.0 
0.999827 0.0128659 0.0 
1.00218 0.0109578 0.0 
0.04299 -0.151316 0.0 
0.999175 0.0140005 0.0 
1.19202 -0.234177 0.0 
0.944154 0.0229243 0.0 
0.918988 -0.0883376 0.0 
0.915821 -0.0744818 0.0 
1.04723 -0.00336928 0.0 
0.924558 -0.0782203 0.0 
0.967207 -0.00815945 0.0 
1.04269 -0.0158487 0.0 
1.06866 -0.00214547 0.0 
1.1973 0.0811958 0.0 
1.03795 -0.0154512 0.0 
0.92029 -0.0885675 0.0 
0.954913 -0.00366829 0.0 
0.10078 0.000352548 0.0 
1.20282 0.0319161 0.0 
1.04388 -0.00324073 0.0 
1.03641 -0.0173057 0.0 
1.03788 -0.00764501 0.0 
1.04181 -0.0108394 0.0 
1.03538 -0.0113681 0.0 
1.03252 -0.0162965 0.0 
1.1645 0.18329 0.0 
1.03898 -0.00580814 0.0 
0.877501 0.125818 0.0 
0.999022 0.0209258 0.0 
1.03535 -0.0198461 0.0 
1.04067 0.00568796 0.0 
1.03784 -0.0221673 0.0 
1.19674 0.0888764 0.0 
1.0611 -0.0137528 0.0 
0.999985 0.018102 0.0 
1.03909 -0.00787163 0.0 
1.02946 0.0469356 0.0 
1.00069 0.013909 0.0 
1.03729 -0.0198433 0.0 
1.05866 -0.00971181 0.0 
1.08784 0.18848 0.0 
1.06869 -0.0725162 0.0 
0.189434 0.00556394 0.0 
1.05419 0.0234846 0.0 
0.458355 -0.0387186 0.0 
0.418792 -0.0110481 0.0 
0.977936 0.196197 0.0 
0.0710311 -0.000270823 0.0 
1.03796 -0.0132881 0.0 
1.03108 -0.160248 0.0 
1.05034 0.0500717 0.0 
1.13956 0.11953 0.0 
0.998738 0.0195423 0.0 
0.0831124 0.00516927 0.0 
0.998896 0.0186287 0.0 
0.411451 -0.0162474 0.0 
0.998728 0.0146732 0.0 
1.04614 0.0281041 0.0 
0.985193 0.0244945 0.0 
0.973504 0.0342677 0.0 
1.05575 0.0391192 0.0 
0.998556 0.015915 0.0 
0.922966 -0.0794753 0.0 
0.984203 0.0209235 0.0 
1.06685 0.0213523 0.0 
0.981637 0.0253467 0.0 
1.03331 0.0346516 0.0 
1.04045 -0.170748 0.0 
0.998836 0.0162077 0.0 
1.05896 -0.00582078 0.0 
0.920391 -0.0858446 0.0 
1.03408 0.0693256 0.0 
1.04737 -0.000908468 0.0 
1.06736 -0.00613881 0.0 
0.916643 -0.0816681 0.0 
1.13286 0.1114 0.0 
0.999143 0.0169901 0.0 
0.927835 -0.0726658 0.0 
0.922414 -0.0825368 0.0 
0.998603 0.012735 0.0 
1.0415 -0.00402423 0.0 
0.999384 0.0194541 0.0 
0.939167 0.151296 0.0 
1.12975 0.0474833 0.0 
0.998669 0.0150284 0.0 
0.635328 0.110493 0.0 
1.00597 0.0342494 0.0 
0.863506 0.0452955 0.0 
0.998856 0.0193402 0.0 
0.999194 0.0188756 0.0 
1.04545 -0.00534472 0.0 
0.974022 0.023843 0.0 
1.06908 -0.040227 0.0 
1.14182 0.198962 0.0 
1.10925 -0.128355 0.0 
0.875056 -0.0295956 0.0 
0.938324 0.0517407 0.0 
0.875181 0.0162858 0.0 
1.04419 -0.00601457 0.0 
0.924216 -0.0730493 0.0 
0.933314 -0.0625283 0.0 
0.918959 -0.0742078 0.0 
0.582605 0.110787 0.0 
1.05052 -0.00609584 0.0 
0.115976 0.0156375 0.0 
1.03782 0.264627 0.0 
1.03959 -0.0163255 0.0 
1.04432 -0.00999567 0.0 
1.04908 -0.0132289 0.0 
0.0958507 0.0241462 0.0 
1.14284 0.102839 0.0 
1.04419 -0.0283148 0.0 
1.04786 0.0177643 0.0 
0.941511 0.00848672 0.0 
1.03388 -0.0162204 0.0 
1.03582 -0.0120161 0.0 
0.998702 0.0157929 0.0 
1.04134 -0.0335746 0.0 
0.898782 -0.0655232 0.0 
0.999005 0.0149265 0.0 
0.909892 -0.0856912 0.0 
0.233953 -0.0325703 0.0 
0.88804 -0.0838937 0.0 
0.932719 0.0159877 0.0 
1.20114 0.043736 0.0 
1.04366 0.0210225 0.0 
0.303506 -0.0523719 0.0 
1.09587 0.0862206 0.0 
0.998513 0.0159964 0.0 
1.0193 0.222641 0.0 
0.951751 0.177 0.0 
0.998833 0.0174433 0.0 
0.999275 0.0158696 0.0 
0.998708 0.0182537 0.0 
0.575689 -0.00466678 0.0 
0.967747 0.0249773 0.0 
0.965448 0.0224907 0.0 
0.414839 0.13575 0.0 
0.976557 0.0406929 0.0 
0.940307 -0.0443903 0.0 
0.301871 0.101552 0.0 
0.375558 0.184438 0.0 
1.06367 0.296478 0.0 
1.06931 -0.10225 0.0 
0.967204 0.0194169 0.0 
1.13747 0.0476743 0.0 
0.324983 -0.018639 0.0 
1.00068 0.0116074 0.0 
0.990377 0.0335408 0.0 
1.00947 0.0346267 0.0 
0.983807 0.0309202 0.0 
0.999575 0.0165997 0.0 
0.918858 0.0212323 0.0 
1.05895 -0.131016 0.0 
0.919125 0.0754808 0.0 
0.908908 0.131759 0.0 
1.04603 0.0143201 0.0 
1.19259 0.0409117 0.0 
0.830082 0.116559 0.0 
1.05545 -0.0330468 0.0 
0.573644 0.0205886 0.0 
0.975832 0.0433226 0.0 
0.932711 -0.0502872 0.0 
0.702581 0.194561 0.0 
0.89961 0.338801 0.0 
0.987294 0.0261459 0.0 
1.06524 -0.0128272 0.0 
0.967396 0.0860085 0.0 
1.11315 -0.0757809 0.0 
1.11048 0.061061 0.0 
0.983189 0.0325637 0.0 
0.956343 0.0119968 0.0 
1.19317 0.0460507 0.0 
0.99912 0.0229187 0.0 
1.07792 0.283482 0.0 
1.16649 0.034431 0.0 
1.12362 -0.0767712 0.0 
0.994085 0.0100894 0.0 
1.01809 0.0451492 0.0 
0.937528 0.00737829 0.0 
0.997228 0.00842796 0.0 
1.01886 0.283964 0.0 
1.05502 -0.0210064 0.0 
1.00196 0.150888 0.0 
0.92524 -0.00667011 0.0 
1.03629 0.032727 0.0 
0.99281 0.0286005 0.0 
1.03689 0.0176886 0.0 
0.96287 0.0256707 0.0 
0.985029 0.0281349 0.0 
1.03648 0.00860445 0.0 
1 0 0.0 
1.06803 -0.00551462 0.0 
0.984753 0.0297749 0.0 
1.04569 -0.000241349 0.0 
0.987586 0.0279208 0.0 
1.03197 -0.0307313 0.0 
1.03404 -0.026879 0.0 
1.19387 0.0981902 0.0 
0.984824 0.0261736 0.0 
1.12932 -0.0813828 0.0 
0.914461 -0.146282 0.0 
1.06652 -0.0013003 0.0 
1.12805 -0.11404 0.0 
1.1464 0.0500114 0.0 
0.93145 0.0272128 0.0 
1.03706 0.00195368 0.0 
0.995916 0.0171686 0.0 
0.979795 0.0390559 0.0 
0.984091 0.0110859 0.0 
0.995512 0.0103442 0.0 
0.990107 0.0211786 0.0 
1.09086 0.16757 0.0 
0.948684 0.0244637 0.0 
0.998687 0.0176297 0.0 
1.1452 0.0575837 0.0 
1.16513 0.038279 0.0 
0.998435 0.0168791 0.0 
0.933901 -0.0563322 0.0 
0.999069 0.014187 0.0 
1.04307 -0.12782 0.0 
0.995013 0.0177576 0.0 
1.00022 0.0109933 0.0 
0.980776 0.0282203 0.0 
0.988834 0.0281606 0.0 
0.996545 0.0213214 0.0 
0.991895 0.029983 0.0 
0.882404 -0.105687 0.0 
1 0 0.0 
1 0 0.0 
1.03136 0.0463752 0.0 
0.995215 0.0239487 0.0 
0.271147 -0.0100858 0.0 
0.0725369 0.0148264 0.0 
1.11738 0.216336 0.0 
0.962803 -0.0442055 0.0 
1.20129 0.0746568 0.0 
1.14382 0.0617386 0.0 
0.994444 0.0184602 0.0 
1.14076 0.0698929 0.0 
0.991822 0.0244877 0.0 
0.948548 -0.164072 0.0 
1 0 0.0 
1.15636 0.0321152 0.0 
0.962071 0.189587 0.0 
0.992759 0.0230068 0.0 
1.144 -0.0843182 0.0 
1.04373 0.0148632 0.0 
1.04415 0.0165454 0.0 
0.982886 0.0288778 0.0 
0.995356 0.0113304 0.0 
1.12901 0.231624 0.0 
1.11812 0.089782 0.0 
0.994194 0.0195054 0.0 
0.179616 0.00493679 0.0 
0.958571 0.0011139 0.0 
0.992115 0.0121188 0.0 
0.995284 0.0120386 0.0 
0.384369 -0.000592664 0.0 
0.985542 0.0231133 0.0 
0.948658 -0.0293197 0.0 
0.953708 -0.00687484 0.0 
0.0987315 -0.0115067 0.0 
1 0 0.0 
1.06788 0 0.0 
1.00815 0.165681 0.0 
1.12014 -0.145532 0.0 
0.932206 0.0356799 0.0 
1.1132 -0.129643 0.0 
0.350246 -0.00231184 0.0 
0.0783053 0.00239082 0.0 
0.989661 0.0128414 0.0 
0.985677 0.0216372 0.0 
0.987463 0.015962 0.0 
0.991678 0.014266 0.0 
1.10936 -0.173046 0.0 
1.0671 -0.00983988 0.0 
1.08001 0.146326 0.0 
1.12097 0.0826438 0.0 
0.262595 -0.00334443 0.0 
0.95693 0.0788992 0.0 
1.00049 0.0201636 0.0 
1.11185 0.256605 0.0 
0.972395 0.0323716 0.0 
1.06634 -0.0137071 0.0 
0.959461 0.0376883 0.0 
1.06605 -0.00646181 0.0 
0.512883 -0.0155038 0.0 
0.0800817 0.00768054 0.0 
0.0577602 0.0217072 0.0 
0.318946 -0.00938945 0.0 
0.999799 0.0122967 0.0 
0.0842764 0.000615578 0.0 
1.05961 -0.00133225 0.0 
1.16246 -0.0413277 0.0 
1.06734 -0.00428635 0.0 
1 0 0.0 
0.999695 0.0159161 0.0 
1.06537 0.00143339 0.0 
0.979168 0.0317881 0.0 
0.10425 0.00605482 0.0 
1.05927 0.00560206 0.0 
0.0797855 0.00323433 0.0 
1.05652 0.0130886 0.0 
0.920549 0.0278957 0.0 
1.04205 0.000843334 0.0 
0.957552 0.0580519 0.0 
0.999859 0.0211407 0.0 
1.19548 -0.109149 0.0 
0.715224 -0.0183915 0.0 
1.03608 -0.0307294 0.0 
1.04174 -0.0361383 0.0 
1.07143 -0.0433548 0.0 
1.05456 0.00994302 0.0 
1.06687 -0.0120376 0.0 
1.18816 0.0191295 0.0 
1.04138 0.0141419 0.0 
1.24387 0.0842094 0.0 
1.03496 0.0300605 0.0 
0.999893 0.0169546 0.0 
1.17358 0.107825 0.0 
1.06443 -0.0188517 0.0 
0.975846 -0.0442955 0.0 
0.947997 0.0738814 0.0 
0.944411 0.0371747 0.0 
1.01422 0.0414825 0.0 
1.1322 -0.00404047 0.0 
0.929111 0.0325385 0.0 
1.00742 -0.0058024 0.0 
1.06512 0 0.0 
1.06314 -0.0026292 0.0 
0.934057 0.0542254 0.0 
1.13975 -0.163145 0.0 
0.935973 0.160263 0.0 
1.10376 -0.194595 0.0 
0.952734 -0.0200822 0.0 
1.08815 0.250469 0.0 
0.983351 0.0271917 0.0 
1.08745 0.103914 0.0 
0.792393 0.101076 0.0 
1.17624 0.104734 0.0 
0.50677 -0.00743692 0.0 
1.07726 0.185805 0.0 
1.0039 0.0212396 0.0 
1.05621 0.0159086 0.0 
1.0427 0.00919863 0.0 
1.04775 -0.000380279 0.0 
1.04621 0.000698293 0.0 
0.0869066 0.0184208 0.0 
1.04168 0.00254432 0.0 
-0.00758533 0.0237683 0.0 
1.08543 -0.0529342 0.0 
1.00405 0.0347284 0.0 
1.04441 0.00984842 0.0 
1 0 0.0 
0.983335 0.0260337 0.0 
1.19439 0.0940076 0.0 
0.809533 -0.0511532 0.0 
0.999551 0.0153599 0.0 
0.991877 0.0386894 0.0 
1.05001 0.0107103 0.0 
1.05477 0.00587036 0.0 
0.940204 0.188925 0.0 
0.78282 0.130311 0.0 
1.00419 0.0183701 0.0 
1.14979 0.130212 0.0 
1.00026 0.243136 0.0 
0.999086 0.0120014 0.0 
0.986124 0.0289191 0.0 
1.05137 0.00174521 0.0 
0.938163 0.124513 0.0 
0.196695 -0.00347272 0.0 
1.05037 0.00387822 0.0 
0.174477 0.0990886 0.0 
1.0506 -0.00035141 0.0 
1.04442 -0.0210094 0.0 
1.01623 0.0466803 0.0 
1.13568 -0.0596491 0.0 
1.04714 0.00281251 0.0 
0.957198 -0.00626929 0.0 
0.358174 0.0123475 0.0 
1.06311 -0.0222644 0.0 
0.946771 -0.00148034 0.0 
0.999759 0.0150578 0.0 
1.06068 -0.0271749 0.0 
0.942034 0.0656006 0.0 
1.19708 -0.0439616 0.0 
0.293755 -0.0307425 0.0 
0.643465 -0.023568 0.0 
0.941298 -0.00465576 0.0 
0.964991 0.272263 0.0 
0.252106 0.0479084 0.0 
0.99734 0.315829 0.0 
0.968109 -0.0117516 0.0 
1.07896 -0.0422154 0.0 
0.735697 0.000188215 0.0 
0.35807 0.116391 0.0 
1.10195 0.0691543 0.0 
0.99868 0.0121003 0.0 
0.586915 0.00246624 0.0 
0.179467 0.0176853 0.0 
0.91476 -0.0434066 0.0 
0.803817 -0.0326602 0.0 
1.03107 0.0462078 0.0 
0.998762 0.0116883 0.0 
1.02653 -0.0975732 0.0 
1.1176 -0.0328319 0.0 
1.17442 0.0209588 0.0 
0.0795746 0.0024591 0.0 
0.936552 -0.0575865 0.0 
1.034 0.0422884 0.0 
1.06697 -0.00763825 0.0 
0.938289 -0.00903699 0.0 
0.0916932 0.0118208 0.0 
0.99878 0.0126107 0.0 
1.17299 0.0261265 0.0 
1.05911 -0.0264518 0.0 
0.964175 0.215969 0.0 
1.05185 0.0162116 0.0 
1.06841 0.000686222 0.0 
1.06845 0.00547639 0.0 
0.954716 0.0374561 0.0 
1.06103 -0.024216 0.0 
0.998902 0.0137888 0.0 
0.952405 0.00698917 0.0 
1.14128 -0.0317893 0.0 
1.05475 0.0208217 0.0 
0.989394 0.00724575 0.0 
0.95359 0.0152354 0.0 
0.998939 0.0139752 0.0 
1.05843 0.00567723 0.0 
1.04184 -0.00461878 0.0 
1.06088 -0.0214659 0.0 
0.990554 0.00888405 0.0 
1.02147 0.0463271 0.0 
0.998877 0.0132203 0.0 
1.04535 -0.0261046 0.0 
1.06558 0.0197292 0.0 
0.0503363 0.0204666 0.0 
0.0626774 0.00999692 0.0 
1.06865 0.0156561 0.0 
0.905623 -0.0564456 0.0 
0.892833 -0.0468875 0.0 
0.882519 0.120013 0.0 
0.999381 0.013925 0.0 
0.998839 0.0138879 0.0 
0.962965 -0.0132235 0.0 
0.965125 -0.00203498 0.0 
1.03434 0.0265084 0.0 
0.96417 0.234851 0.0 
1.06754 0.151708 0.0 
1.03017 -0.0441221 0.0 
0.0633501 0.00940163 0.0 
1.1608 0.0213306 0.0 
1.09342 0.142705 0.0 
0.998701 0.0134067 0.0 
1.01584 0.0359533 0.0 
1.11045 -0.00977653 0.0 
0.982928 0.0208319 0.0 
0.93472 0.0463616 0.0 
1.03106 -0.0287625 0.0 
0.973519 0.0372532 0.0 
0.941485 0.108914 0.0 
0.9344 0.0588783 0.0 
0.851786 -0.0482004 0.0 
0.963023 0.00703779 0.0 
0.792801 -0.0472629 0.0 
1.00095 0.018116 0.0 
1.03145 0.0429527 0.0 
0.953988 -0.0102505 0.0 
0.961716 -0.00108371 0.0 
0.92286 0.0341575 0.0 
1.10167 0.248832 0.0 
0.972457 0.00600064 0.0 
0.94289 0.291802 0.0 
0.945606 0.032707 0.0 
0.975615 0.226362 0.0 
0.850406 0.286016 0.0 
0.995217 0.00746357 0.0 
1.00093 0 0.0 
0.998814 0.0120717 0.0 
0.977377 0.00147705 0.0 
0.895753 0.153788 0.0 
0.136647 0.00868547 0.0 
1.01071 0.0430089 0.0 
0.980862 0.00706892 0.0 
0.999396 0.0124663 0.0 
0.916065 -0.0718487 0.0 
0.916883 0.0329567 0.0 
1.19875 -0.0324049 0.0 
0.998695 0.0123445 0.0 
0.966458 0.0773839 0.0 
0.787744 -0.0893942 0.0 
1.0337 -0.0228889 0.0 
0.936461 0.0636072 0.0 
0.995284 0.0161209 0.0 
0.944637 0.027472 0.0 
0.99111 0.0199262 0.0 
0.0804745 0.0109649 0.0 
0.781205 -0.0799864 0.0 
1.04323 -0.00279168 0.0 
1.15328 0.0843964 0.0 
1.15593 -0.0373985 0.0 
0.99772 0.0106377 0.0 
0.982276 0.018482 0.0 
1.00521 0.202031 0.0 
1.11468 0.15742 0.0 
0.58457 0.0955162 0.0 
0.951512 0.189098 0.0 
0.981656 0.0188477 0.0 
0.319045 -0.0420576 0.0 
0.982646 0.0217557 0.0 
0.997293 0.0126839 0.0 
1.00029 0.0195347 0.0 
0.267414 -0.0345182 0.0 
0.220162 -0.0264844 0.0 
0.98185 0.0299782 0.0 
0.339079 0.0581112 0.0 
1.19313 0.0897406 0.0 
1.00993 0.0425013 0.0 
0.981018 0.0322323 0.0 
0.999665 0.0194325 0.0 
0.978034 0.011145 0.0 
0.930567 0.0686652 0.0 
0.976729 0.0256384 0.0 
0.852442 0.28519 0.0 
0.513484 -0.0423721 0.0 
0.242716 -0.0283036 0.0 
0.96834 0.0134321 0.0 
0.974921 0.0120529 0.0 
1.0548 0.204616 0.0 
0.333043 -0.0404577 0.0 
0.940082 0.0209431 0.0 
1.03433 -0.0381972 0.0 
0.983472 0.245814 0.0 
0.999232 0.0135646 0.0 
0.922829 0.081791 0.0 
0.972506 0.030886 0.0 
0.930482 0.143288 0.0 
0.960586 0.156292 0.0 
1.00932 0.255212 0.0 
0.742447 -0.0367569 0.0 
0.93756 -0.0523346 0.0 
1.11479 0.060376 0.0 
0.469955 0.0936958 0.0 
0.926692 -0.059658 0.0 
0.128382 0.00173901 0.0 
0.899307 -0.0128755 0.0 
0.750192 0.136013 0.0 
0.9154 -0.0664247 0.0 
0.922464 -0.05615 0.0 
0.615443 0.16527 0.0 
1.04681 0.00780819 0.0 
0.941266 0.173396 0.0 
0.879955 -0.00492708 0.0 
0.928582 -0.0537299 0.0 
1.04022 -0.00522095 0.0 
0.341328 0.0415629 0.0 
1.03721 -0.00835347 0.0 
0.866388 0.00740207 0.0 
0.898226 0.217355 0.0 
1.04869 -0.000591836 0.0 
0.906981 -0.0880901 0.0 
0.922502 0.182879 0.0 
0.313538 -0.0427238 0.0 
1.12835 0.0633492 0.0 
1.03552 0.170166 0.0 
0.83159 0.380909 0.0 
1.10254 0.164717 0.0 
1.06469 0.259828 0.0 
0.981899 -0.050542 0.0 
0.748517 -0.104306 0.0 
0.977844 0.0332239 0.0 
0.524002 0.0620013 0.0 
0.918699 -0.0526491 0.0 
1.04619 0.0677787 0.0 
0.204951 -0.00303696 0.0 
1.04437 0.263648 0.0 
1.05812 0.0416219 0.0 
0.879347 0.105305 0.0 
1.00493 0.0217499 0.0 
0.893069 0.0669521 0.0 
0.158469 0.00595426 0.0 
0.853633 0.0764292 0.0 
0.949636 0.036812 0.0 
0.947513 0.00384929 0.0 
1.17347 -0.0377331 0.0 
0.763979 0.335446 0.0 
0.847997 0.0891502 0.0 
1.0287 0.0726647 0.0 
1.08239 -0.0948516 0.0 
0.921343 -0.0468843 0.0 
1.04043 0.271905 0.0 
0.96488 0.0168226 0.0 
0.995751 0.0400455 0.0 
0.910565 0.0770084 0.0 
0.924901 0.112634 0.0 
0.910959 0.035407 0.0 
1.00882 0.0272055 0.0 
0.920136 0.105949 0.0 
0.917803 0.220886 0.0 
0.999168 0.0126593 0.0 
1.09215 -0.0702547 0.0 
0.329283 -0.0465009 0.0 
1.05434 0.251168 0.0 
0.966546 0.203048 0.0 
0.807489 0.151295 0.0 
0.827279 0.038221 0.0 
0.886596 0.0298386 0.0 
1.04255 0.30525 0.0 
0.999536 0.0172959 0.0 
1.12519 0.139686 0.0 
1.03353 0.226415 0.0 
0.886661 -0.0483243 0.0 
0.923165 -0.0019433 0.0 
0.858741 0.158453 0.0 
0.911224 0.0206426 0.0 
0.885472 0.014852 0.0 
0.932589 -0.0460558 0.0 
0.934548 0.20728 0.0 
0.995675 0.0301583 0.0 
0.999536 0.014828 0.0 
0.128567 0.00696813 0.0 
0.112716 0.0109926 0.0 
0.913181 0.0277511 0.0 
0.527182 0.153767 0.0 
1.03839 -0.00691266 0.0 
0.921952 -0.0163837 0.0 
0.978076 -0.00100526 0.0 
0.90293 0.076483 0.0 
0.84219 0.00671959 0.0 
1.08211 -0.0666655 0.0 
0.955222 0.00794508 0.0 
0.975623 0.00906462 0.0 
1.08466 0.267728 0.0 
0.247425 -0.0280606 0.0 
0.931024 0.300303 0.0 
0.973105 0.00260775 0.0 
0.989019 0.0539257 0.0 
1.06926 -0.229083 0.0 
0.969095 0.00464795 0.0 
0.961864 0.012514 0.0 
0.997701 0.0132365 0.0 
1.03769 -0.00806566 0.0 
0.799543 0.108478 0.0 
0.904745 0.0183846 0.0 
0.990959 0.00539244 0.0 
1.02892 -0.182496 0.0 
0.995164 0.0154021 0.0 
0.935714 0.0240842 0.0 
0.811864 0.16824 0.0 
0.950187 -0.00850545 0.0 
0.998125 0.0101221 0.0 
0.938954 0.00469688 0.0 
0.189034 0.128596 0.0 
0.944053 -0.00841317 0.0 
1.06501 -0.00895125 0.0 
0.954347 0.288741 0.0 
0.0822704 0.0180223 0.0 
1.10186 0.255013 0.0 
0.988056 0.0148234 0.0 
0.938958 -0.136302 0.0 
0.968987 0.00181756 0.0 
0.95978 0.00910885 0.0 
0.960026 0.00451378 0.0 
0.54432 0.134921 0.0 
0.962058 0.00183581 0.0 
0.956169 -0.0135804 0.0 
0.652917 0.184302 0.0 
1.03445 -0.0118672 0.0 
1.03457 0.0455283 0.0 
0.997584 0.26597 0.0 
0.981105 0.0207564 0.0 
0.975573 0.0289315 0.0 
0.964816 0.00390939 0.0 
0.893765 0.0129109 0.0 
0.95911 -0.0178721 0.0 
0.120475 -0.000132305 0.0 
0.968846 -0.000245052 0.0 
1.0601 0.0176048 0.0 
0.876604 0.168018 0.0 
0.996492 0.012026 0.0 
1.06529 0.0280434 0.0 
1.05761 0.0947915 0.0 
1.10251 -0.0703496 0.0 
1.09667 0.10456 0.0 
0.976639 -0.00296905 0.0 
0.877267 0.182977 0.0 
0.99662 0.014433 0.0 
0.996954 0.0111098 0.0 
0.890179 -0.0412034 0.0 
0.978795 0.025707 0.0 
1.16442 -0.226732 0.0 
0.6782 0.0145259 0.0 
0.942268 0.041501 0.0 
1.01791 0.302653 0.0 
0.908725 0.353277 0.0 
0.839494 0.132085 0.0 
1.15996 0.0744037 0.0 
0.154252 0.134148 0.0 
1.01888 0.289613 0.0 
1.06702 0.265824 0.0 
1.03921 -0.00522368 0.0 
0.939151 0.0941281 0.0 
0.0530281 0.00828433 0.0 
1.17672 0.146861 0.0 
0.977908 0.031781 0.0 
0.910394 0.121974 0.0 
1.12748 0.21964 0.0 
0.85184 0.124262 0.0 
-0.0396618 -0.0171665 0.0 
0.978993 0.0299159 0.0 
0.925438 0.073544 0.0 
0.746749 0.140503 0.0 
0.979825 0.0266669 0.0 
0.912203 0.150055 0.0 
0.995876 0.0125036 0.0 
0.90351 0.101399 0.0 
0.979321 0.0278343 0.0 
0.854346 0.0556018 0.0 
0.831443 0.0224702 0.0 
0.904691 0.164133 0.0 
0.998753 0.0113684 0.0 
0.969053 -0.00471094 0.0 
0.980284 0.0250131 0.0 
0.999068 0.0175635 0.0 
0.962921 -0.00474462 0.0 
0.961897 -0.00841232 0.0 
0.966363 -0.00420049 0.0 
0.938559 -0.04143 0.0 
0.926195 0.0580436 0.0 
0.926832 0.0880096 0.0 
1.0412 -0.000636543 0.0 
0.989816 0.0319148 0.0 
1.06413 0.0292114 0.0 
0.999167 0.0144928 0.0 
1.07806 -0.00567013 0.0 
1.00547 0.0796844 0.0 
0.949933 0.0132487 0.0 
0.977053 0.0270106 0.0 
1.05049 -0.160759 0.0 
1.10221 0.242936 0.0 
1.12516 0.231117 0.0 
0.933675 -0.0321936 0.0 
0.999062 0.0140225 0.0 
0.95142 0.0109064 0.0 
0.996366 0.013586 0.0 
0.979651 0.00534972 0.0 
1.05551 0.010967 0.0 
1.04938 -0.171482 0.0 