<VTKFile type="UnstructuredGrid" version="0.1" byte_order="LittleEndian">
  <UnstructuredGrid>
    <Piece NumberOfPoints="9712" NumberOfCells="19403">
      <Points>
        <DataArray type = "Float64" NumberOfComponents="3" format="ascii">
-5 -7 0.0 
15.5 -7 0.0 
15.5 7 0.0 
-5 7 0.0 
-1.6546 1.77742 0.0 
-2.13867 1.86504 0.0 
-1.83467 1.79143 0.0 
1.47969 -2.21179 0.0 
1.36003 -2.38618 0.0 
1.4346 -2.45048 0.0 
-2.04214 1.94165 0.0 
-0.20425 1.17338 0.0 
-2.07648 1.81911 0.0 
-2.00827 1.89081 0.0 
-2.05492 1.98872 0.0 
0.192693 0.536219 0.0 
0.154285 1.75648 0.0 
1.1379 -1.62057 0.0 
-2.11226 1.96977 0.0 
-1.74119 1.75327 0.0 
1.14499 -1.58184 0.0 
-1.94373 2.37229 0.0 
1.50619 -0.664239 0.0 
1.99658 -1.76705 0.0 
1.7229 -1.18344 0.0 
-1.97759 2.52091 0.0 
-0.768046 0.387136 0.0 
1.32657 -1.43969 0.0 
1.90142 0.24821 0.0 
-0.93264 1.51038 0.0 
1.09557 0.967223 0.0 
0.627111 0.757352 0.0 
-2.05707 2.31394 0.0 
1.34027 -2.45136 0.0 
-0.725097 0.397516 0.0 
-0.666094 2.30428 0.0 
-0.73829 -0.279965 0.0 
1.73336 -1.08822 0.0 
1.88466 -1.24421 0.0 
1.50539 -1.23752 0.0 
1.65978 -1.30759 0.0 
-0.0409718 0.542603 0.0 
1.6005 -1.1227 0.0 
1.78439 -0.941488 0.0 
1.86015 -1.54236 0.0 
1.49308 -1.40058 0.0 
2.34892 -1.47149 0.0 
2.13832 -1.3246 0.0 
1.73061 0.751302 0.0 
-0.580328 0.526903 0.0 
1.51013 -2.1595 0.0 
-1.65424 3.45779 0.0 
-1.51397 2.46352 0.0 
1.42773 -2.17867 0.0 
0.304353 0.497878 0.0 
2.24628 0.228293 0.0 
1.51258 -2.27933 0.0 
-1.60346 3.44299 0.0 
-1.71408 2.36227 0.0 
2.17421 0.530405 0.0 
2.42 0.316451 0.0 
-1.63642 3.31911 0.0 
2.53942 -0.995036 0.0 
0.750003 0.810439 0.0 
2.04736 0.40918 0.0 
1.19615 -1.50641 0.0 
2.13474 0.494063 0.0 
0.547924 0.306722 0.0 
-0.2059 0.361394 0.0 
2.2127 0.547693 0.0 
1.41442 -0.597105 0.0 
1.52233 -1.46252 0.0 
-1.84114 2.53924 0.0 
-5 -2.53894 0.0 
2.32127 0.371156 0.0 
-1.69186 3.33379 0.0 
-0.964779 0.566136 0.0 
-1.81311 2.48387 0.0 
-1.78557 3.38304 0.0 
1.48278 0.914136 0.0 
2.51531 -1.89689 0.0 
1.20982 -0.330514 0.0 
0.408434 0.319657 0.0 
0.95023 0.60993 0.0 
-0.752349 0.440796 0.0 
-0.998248 0.564019 0.0 
-1.73165 3.36299 0.0 
1.24353 -1.49063 0.0 
0.942095 0.817189 0.0 
-1.77816 2.47096 0.0 
2.48183 -1.95479 0.0 
1.33574 -1.77854 0.0 
0.823335 1.12085 0.0 
-0.36308 0.598468 0.0 
0.745466 0.783414 0.0 
-1.88344 2.8521 0.0 
-1.79794 3.52221 0.0 
3.0087 0.272815 0.0 
-1.81486 2.66014 0.0 
0.375911 -0.403668 0.0 
-0.68323 0.487288 0.0 
-0.34187 -0.274923 0.0 
-0.293875 -0.201368 0.0 
1.61018 -1.767 0.0 
-0.448275 -0.347267 0.0 
-1.08687 0.352015 0.0 
1.29257 -1.76345 0.0 
1.67658 -1.49551 0.0 
1.19193 0.533009 0.0 
1.21582 -1.91654 0.0 
-0.36438 -0.346225 0.0 
-0.92534 0.330346 0.0 
2.3836 0.287756 0.0 
1.68841 0.639887 0.0 
1.59001 -1.89458 0.0 
1.14818 -1.92143 0.0 
1.28996 -2.19426 0.0 
1.37603 -1.8763 0.0 
1.23834 -2.09141 0.0 
1.11702 -2.06287 0.0 
0.691829 0.463808 0.0 
1.46523 -2.03459 0.0 
-0.123547 0.424486 0.0 
-1.3311 2.12174 0.0 
1.08169 -1.90074 0.0 
1.87975 -2.15971 0.0 
1.10131 -1.78593 0.0 
1.13722 0.534683 0.0 
1.42465 -1.59031 0.0 
-1.45435 2.47344 0.0 
1.41998 -1.98207 0.0 
0.463917 1.8787 0.0 
-1.72896 2.89571 0.0 
1.12419 -1.84975 0.0 
1.59054 -1.20634 0.0 
0.46124 0.621002 0.0 
0.806438 -1.00204 0.0 
2.1804 0.349761 0.0 
2.21142 -1.6418 0.0 
1.10152 -0.274558 0.0 
2.23388 0.387302 0.0 
0.137769 0.567007 0.0 
1.88736 0.267391 0.0 
1.26821 -1.94267 0.0 
0.21033 -0.605707 0.0 
2.61094 -1.50046 0.0 
0.819837 0.743337 0.0 
-1.4303 2.07799 0.0 
1.82013 0.322126 0.0 
-1.47649 2.2099 0.0 
1.15745 -0.274223 0.0 
-1.81198 2.24994 0.0 
2.34337 -1.67775 0.0 
-1.13329 1.37877 0.0 
-0.828215 1.05292 0.0 
2.46752 -1.53452 0.0 
-1.69915 2.18529 0.0 
-0.404416 -0.286271 0.0 
-1.23501 1.31766 0.0 
2.11757 -1.50659 0.0 
-1.08535 1.28274 0.0 
2.58548 -1.70783 0.0 
0.24729 -0.572345 0.0 
-1.66963 2.25319 0.0 
1.58322 -1.62308 0.0 
-0.367923 -0.306026 0.0 
0.391521 1.44485 0.0 
1.88977 -2.46319 0.0 
1.5943 -1.53613 0.0 
-0.357143 -0.23651 0.0 
0.82621 0.80563 0.0 
-1.59261 2.31884 0.0 
-0.47244 -0.307516 0.0 
-0.40334 -0.326688 0.0 
-2.00063 2.11543 0.0 
1.55514 -1.95078 0.0 
-1.40431 2.26352 0.0 
-0.0265928 0.573714 0.0 
1.17093 1.10579 0.0 
-1.77907 2.22111 0.0 
0.682788 0.329642 0.0 
-0.54475 2.15572 0.0 
-0.288592 0.289433 0.0 
-1.43199 2.16349 0.0 
-1.45029 2.25134 0.0 
1.5535 -1.79992 0.0 
-1.06406 1.08381 0.0 
1.72954 1.44966 0.0 
0.582806 0.515814 0.0 
0.582876 -0.679913 0.0 
1.32351 -0.355916 0.0 
-0.47505 0.577092 0.0 
-0.371167 0.227715 0.0 
1.52235 -1.8529 0.0 
-0.429822 -0.244811 0.0 
-0.53237 -0.24648 0.0 
-0.393983 -0.210364 0.0 
0.652895 0.317361 0.0 
1.55812 -1.70765 0.0 
1.63021 0.325622 0.0 
0.442731 0.358729 0.0 
1.22925 -1.85192 0.0 
1.43517 -1.79082 0.0 
1.39317 -1.6984 0.0 
1.62965 0.295952 0.0 
0.905462 0.793465 0.0 
1.04036 -1.64811 0.0 
2.1131 -1.72466 0.0 
-0.743911 0.369492 0.0 
1.14427 -1.99314 0.0 
1.26033 -2.0209 0.0 
-1.70955 2.07308 0.0 
0.910023 -1.62976 0.0 
-0.313059 -0.0954838 0.0 
-1.77334 2.3988 0.0 
-0.311958 -0.24042 0.0 
2.53315 0.325608 0.0 
-0.273728 -0.226719 0.0 
-0.646401 0.379627 0.0 
1.52426 0.616074 0.0 
2.21703 -1.79499 0.0 
2.71108 0.312216 0.0 
0.759924 1.093 0.0 
-1.69271 2.12368 0.0 
0.255794 0.540969 0.0 
0.0534699 0.562158 0.0 
-1.5679 2.22408 0.0 
-1.66906 2.45165 0.0 
-1.51895 2.09449 0.0 
2.16948 0.408238 0.0 
-0.818806 0.680638 0.0 
-0.826868 0.642087 0.0 
0.519855 0.276992 0.0 
-0.716682 1.18602 0.0 
-0.649974 -0.148775 0.0 
0.457368 0.256619 0.0 
0.517407 0.248194 0.0 
0.327129 0.39802 0.0 
0.533249 -0.878832 0.0 
-0.870735 0.634904 0.0 
1.19219 1.07557 0.0 
2.35922 0.366028 0.0 
-1.66911 3.66723 0.0 
-0.857603 1.54934 0.0 
-0.379189 2.30131 0.0 
-0.941007 1.36523 0.0 
-1.58662 2.49682 0.0 
-0.545297 0.352587 0.0 
0.327944 -0.744683 0.0 
-0.312756 0.524741 0.0 
-0.107843 0.506233 0.0 
2.13378 -2.36584 0.0 
1.52689 0.686953 0.0 
-0.119983 0.327909 0.0 
1.02161 -1.53072 0.0 
1.51507 0.39695 0.0 
-0.674484 1.02605 0.0 
-0.564724 -0.148435 0.0 
0.409388 0.290913 0.0 
0.252349 0.30842 0.0 
-1.09282 1.45998 0.0 
1.45674 -1.54484 0.0 
-0.266777 0.782169 0.0 
0.91327 -0.874389 0.0 
1.01208 1.13309 0.0 
-0.897136 1.35063 0.0 
-0.846484 0.489353 0.0 
1.47563 0.663768 0.0 
-1.22282 2.05021 0.0 
0.348906 0.416714 0.0 
1.41913 0.964648 0.0 
0.933289 -0.839038 0.0 
-1.85066 1.40221 0.0 
0.142477 1.99435 0.0 
-0.717809 0.341194 0.0 
-2.21177 1.41584 0.0 
0.396571 0.350929 0.0 
1.25171 -1.60721 0.0 
0.736798 0.393502 0.0 
-0.661427 0.19031 0.0 
2.18751 -2.32769 0.0 
-1.00908 1.6747 0.0 
2.21416 -2.07269 0.0 
-0.779194 0.642011 0.0 
-1.02312 1.3939 0.0 
2.08809 -2.24876 0.0 
-5 -4.48794 0.0 
1.61792 -1.46215 0.0 
-0.974627 1.38947 0.0 
1.81166 -2.48446 0.0 
-1.03635 1.47474 0.0 
0.869004 -1.74424 0.0 
0.956579 -1.78598 0.0 
1.07495 0.540689 0.0 
-1.08005 1.37763 0.0 
0.914755 -0.803058 0.0 
0.611759 -0.305322 0.0 
1.70043 -1.41356 0.0 
0.75708 -0.631542 0.0 
1.21215 1.01979 0.0 
-0.586902 0.440014 0.0 
1.9251 -2.56336 0.0 
-1.58261 1.91091 0.0 
-0.746541 1.26087 0.0 
-1.49915 1.13657 0.0 
-1.46675 0.971536 0.0 
-1.05881 0.930935 0.0 
0.71826 0.415078 0.0 
-0.701697 0.526982 0.0 
-1.56194 2.05157 0.0 
1.15988 0.991244 0.0 
1.38676 0.949615 0.0 
-1.61697 2.02689 0.0 
1.13748 -0.357331 0.0 
-1.8456 2.04561 0.0 
0.253686 -0.756334 0.0 
-1.53603 1.86509 0.0 
-1.43465 0.924137 0.0 
-1.00273 1.27416 0.0 
-1.03063 1.5132 0.0 
-1.32483 1.94769 0.0 
-0.965552 1.61445 0.0 
-0.239859 -0.245939 0.0 
-5 3.01776 0.0 
-5 -0.248741 0.0 
0.517491 1.87079 0.0 
-1.18776 1.8875 0.0 
2.27458 0.36201 0.0 
1.9794 0.331487 0.0 
0.503086 0.510306 0.0 
1.26387 -0.370702 0.0 
1.24483 0.550197 0.0 
1.12871 0.979556 0.0 
-1.48659 1.83259 0.0 
1.0672 0.958366 0.0 
-1.16856 1.61214 0.0 
-0.218637 -0.230696 0.0 
-5 1.81431 0.0 
1.37014 1.04658 0.0 
0.0950623 0.557621 0.0 
-1.23613 1.67303 0.0 
0.953731 -0.709843 0.0 
2.07568 -1.85385 0.0 
2.10836 -1.82014 0.0 
-0.994952 1.33552 0.0 
-1.86986 1.52312 0.0 
0.515812 0.447542 0.0 
0.842446 0.992035 0.0 
-1.42353 1.8223 0.0 
2.091 0.354014 0.0 
-0.937663 0.401428 0.0 
-1.69305 1.41997 0.0 
-1.82465 1.55127 0.0 
2.15192 0.384657 0.0 
-1.17972 1.37998 0.0 
-0.718866 -0.0130647 0.0 
-0.927867 0.290435 0.0 
1.56509 0.300406 0.0 
-5 -3.04052 0.0 
9.98027 -7 0.0 
0.176009 0.694641 0.0 
0.597997 -0.559941 0.0 
-0.546583 0.4849 0.0 
0.602022 -0.657834 0.0 
2.17737 0.379672 0.0 
1.89809 0.287017 0.0 
-1.58883 1.35796 0.0 
-1.2284 1.37063 0.0 
-1.43937 1.35342 0.0 
-1.59664 1.47263 0.0 
0.577431 -0.368705 0.0 
1.5263 -1.51093 0.0 
0.479666 0.796509 0.0 
0.894995 1.01463 0.0 
2.22312 0.363016 0.0 
-0.320562 0.726481 0.0 
-1.30188 2.41386 0.0 
0.43802 0.434693 0.0 
-0.761697 0.762024 0.0 
1.45688 -1.49591 0.0 
-0.65072 0.676835 0.0 
1.6097 -1.41509 0.0 
2.25768 0.399237 0.0 
1.85518 0.299709 0.0 
2.14618 0.290757 0.0 
2.25222 0.371677 0.0 
-1.93063 2.91367 0.0 
1.52717 0.319618 0.0 
1.67964 -1.62237 0.0 
1.35962 -0.439169 0.0 
1.63007 -1.54335 0.0 
-5 -0.764504 0.0 
-1.61377 2.62271 0.0 
1.73865 -1.57725 0.0 
-0.908306 1.23669 0.0 
1.60766 0.330292 0.0 
1.82509 -1.63054 0.0 
1.90521 0.312457 0.0 
1.98719 -1.6488 0.0 
-0.528791 0.39225 0.0 
1.94978 -2.39003 0.0 
-0.472559 0.718465 0.0 
-1.28058 2.26572 0.0 
0.881581 -0.556282 0.0 
2.26369 0.42542 0.0 
0.917309 -1.69962 0.0 
0.853954 -1.60945 0.0 
1.30086 -0.404316 0.0 
1.99565 -2.46852 0.0 
1.49445 -1.47573 0.0 
1.68285 0.863315 0.0 
2.03074 -2.37549 0.0 
2.52279 -0.506167 0.0 
2.56049 -1.76899 0.0 
-1.52889 2.56597 0.0 
2.81136 -0.570221 0.0 
1.3688 -1.46095 0.0 
1.29524 -0.373946 0.0 
-0.350504 0.671928 0.0 
-0.590282 0.564035 0.0 
-0.054366 2.16706 0.0 
1.50819 1.22548 0.0 
-0.548222 0.453941 0.0 
2.19936 -2.5207 0.0 
12.2704 -7 0.0 
1.6811 -1.36761 0.0 
-0.449261 0.559535 0.0 
0.537017 -0.527614 0.0 
-0.00733391 0.553304 0.0 
0.494109 -0.356396 0.0 
-0.7939 0.0827441 0.0 
0.39888 0.467333 0.0 
-1.04288 1.34095 0.0 
0.605019 1.02824 0.0 
0.847559 0.374727 0.0 
1.00336 0.618307 0.0 
2.1955 0.399186 0.0 
0.656973 0.401158 0.0 
-0.998431 2.73564 0.0 
[...]
<PointData>
  <DataArray type = "Float64" Name="VitesseP1" NumberOfComponents="3" format="ascii">
1 0 0.0 
1.09264 0 0.0 
1.03501 0 0.0 
1 0 0.0 
0.994562 0.0159095 0.0 
0.99688 0.0112154 0.0 
0.99545 0.0137052 0.0 
1.04191 -0.0045939 0.0 
1.0438 -0.00574232 0.0 
1.049 -0.00544861 0.0 
0.997728 0.0121502 0.0 
0.986332 0.0730852 0.0 
0.996572 0.0115482 0.0 
0.996783 0.0123414 0.0 
0.998894 0.0121536 0.0 
0.991499 0.218745 0.0 
1.01991 0.0540867 0.0 
1.04976 -0.0267802 0.0 
0.998818 0.0115709 0.0 
0.994981 0.0146365 0.0 
1.05491 -0.0277438 0.0 
0.998824 0.013495 0.0 
1.15927 -0.027156 0.0 
1.04723 0.0109986 0.0 
1.06342 -0.00309915 0.0 
0.998786 0.0130762 0.0 
0.944299 0.00881499 0.0 
1.06301 -0.0229026 0.0 
0.0628104 0.00211271 0.0 
0.988693 0.0315847 0.0 
1.1429 0.0700362 0.0 
1.10936 0.14367 0.0 
0.998819 0.0124936 0.0 
1.03375 -0.0188643 0.0 
0.941129 0.0124145 0.0 
1.00536 0.0305654 0.0 
0.936572 -0.0514767 0.0 
1.0846 -0.00296778 0.0 
1.05609 0.00758814 0.0 
1.05358 -0.0166189 0.0 
1.05634 -0.00612203 0.0 
0.926343 0.152021 0.0 
1.07491 -0.0122207 0.0 
1.12638 0.000289223 0.0 
1.06852 0.00589595 0.0 
1.06337 -0.0147647 0.0 
1.06328 0.0332152 0.0 
1.05692 0.0231653 0.0 
1.20155 0.0319954 0.0 
0.939269 0.0358256 0.0 
1.04071 -0.00456095 0.0 
1.00252 0.0124233 0.0 
0.999764 0.017684 0.0 
1.04014 -0.00615469 0.0 
1.03676 0.243902 0.0 
0.0306935 -0.000325815 0.0 
1.04357 -0.00356726 0.0 
1.00274 0.0128305 0.0 
0.999047 0.0157671 0.0 
1.15787 0.00172613 0.0 
0.0999533 -0.00868439 0.0 
1.00239 0.0131099 0.0 
1.09666 0.0601745 0.0 
1.12242 0.122424 0.0 
0.520915 0.00884349 0.0 
1.06077 -0.027703 0.0 
1.05369 0.00476994 0.0 
0.552397 0.134514 0.0 
0.862274 0.0856699 0.0 
1.18343 -0.00371184 0.0 
1.20249 -0.0389269 0.0 
1.06697 -0.0123819 0.0 
0.998998 0.0142246 0.0 
1 0 0.0 
0.277642 -0.00999807 0.0 
1.00216 0.0126805 0.0 
0.967972 0.0107157 0.0 
0.99902 0.0145818 0.0 
1.00178 0.0118493 0.0 
1.17468 0.0386843 0.0 
1.03794 0.0217598 0.0 
0.748106 -0.040752 0.0 
0.946421 0.263398 0.0 
1.1726 0.117486 0.0 
0.945938 0.0143693 0.0 
0.969793 0.00900684 0.0 
1.00206 0.0122865 0.0 
1.06212 -0.0259371 0.0 
1.14333 0.0995551 0.0 
0.999085 0.0149326 0.0 
1.04452 0.0264171 0.0 
1.04285 -0.0152625 0.0 
1.09721 0.0810598 0.0 
0.93517 0.0703379 0.0 
1.12469 0.126572 0.0 
0.999838 0.0130124 0.0 
1.00219 0.0110683 0.0 
-0.0230567 -0.145362 0.0 
0.999188 0.0141605 0.0 
1.19013 -0.234799 0.0 
0.94382 0.0231674 0.0 
0.918321 -0.0884914 0.0 
0.915123 -0.0745639 0.0 
1.0473 -0.00482985 0.0 
0.923938 -0.0784302 0.0 
0.967023 -0.00809379 0.0 
1.04256 -0.0172072 0.0 
1.06883 -0.00384234 0.0 
1.19497 0.086342 0.0 
1.03776 -0.0166991 0.0 
0.919611 -0.0887778 0.0 
0.95466 -0.00357559 0.0 
0.056199 0.0023767 0.0 
1.20395 0.0391488 0.0 
1.04391 -0.00461877 0.0 
1.0362 -0.0185178 0.0 
1.03781 -0.00878514 0.0 
1.04172 -0.0121645 0.0 
1.03523 -0.0125585 0.0 
1.03235 -0.0175095 0.0 
1.162 0.18567 0.0 
1.03889 -0.00707156 0.0 
0.876765 0.126285 0.0 
0.999034 0.0211743 0.0 
1.03511 -0.0210346 0.0 
1.04081 0.00441058 0.0 
1.03759 -0.023436 0.0 
1.19466 0.093693 0.0 
1.06117 -0.0152956 0.0 
1.00001 0.0183152 0.0 
1.03897 -0.00915153 0.0 
1.03 0.0475975 0.0 
1.00071 0.0140656 0.0 
1.03706 -0.0210852 0.0 
1.05832 -0.0116052 0.0 
1.0867 0.19024 0.0 
1.0678 -0.0739267 0.0 
0.129781 0.0121974 0.0 
1.05483 0.0218961 0.0 
0.454168 -0.0391929 0.0 
0.372509 -0.00208041 0.0 
0.976989 0.197124 0.0 
0.0677303 -0.00564424 0.0 
1.03779 -0.0145424 0.0 
1.02985 -0.160923 0.0 
1.0509 0.0486489 0.0 
1.13887 0.12257 0.0 
0.998745 0.0197741 0.0 
0.076729 0.00564648 0.0 
0.998907 0.018849 0.0 
0.407633 -0.017252 0.0 
0.998734 0.0148453 0.0 
1.04668 0.0265224 0.0 
0.985093 0.0247827 0.0 
0.973325 0.0346277 0.0 
1.0564 0.0376127 0.0 
0.998561 0.0161025 0.0 
0.922343 -0.0796409 0.0 
0.984097 0.0211785 0.0 
1.0674 0.0196782 0.0 
0.98151 0.0256418 0.0 
1.03353 0.033052 0.0 
1.03912 -0.171404 0.0 
0.998845 0.016398 0.0 
1.05915 -0.00738572 0.0 
0.91973 -0.0860239 0.0 
1.03442 0.0704781 0.0 
1.04672 -0.00223531 0.0 
1.06754 -0.00778421 0.0 
0.916006 -0.0817943 0.0 
1.13241 0.114407 0.0 
0.999155 0.0171896 0.0 
0.927254 -0.0728492 0.0 
0.92177 -0.0827329 0.0 
0.998604 0.0128879 0.0 
1.04148 -0.00536258 0.0 
0.999401 0.0196847 0.0 
0.938422 0.152005 0.0 
1.13159 0.0513004 0.0 
0.998674 0.0152049 0.0 
0.628106 0.110674 0.0 
1.00604 0.0346699 0.0 
0.862883 0.0455757 0.0 
0.998867 0.0195693 0.0 
0.999208 0.0190989 0.0 
1.04546 -0.00676885 0.0 
0.973845 0.0241214 0.0 
1.07457 -0.0410266 0.0 
1.14031 0.201084 0.0 
1.1078 -0.129515 0.0 
0.865792 -0.0310748 0.0 
0.937914 0.052124 0.0 
0.874596 0.0164959 0.0 
1.04418 -0.00739781 0.0 
0.923632 -0.0731861 0.0 
0.932805 -0.0626728 0.0 
0.918354 -0.0743144 0.0 
0.576368 0.110885 0.0 
1.0506 -0.00758429 0.0 
0.108065 0.0180781 0.0 
1.03517 0.265665 0.0 
1.03942 -0.017611 0.0 
1.04426 -0.0113886 0.0 
1.04904 -0.0146695 0.0 
0.0889935 0.0260095 0.0 
1.14243 0.106185 0.0 
1.04393 -0.0296379 0.0 
1.04828 0.0162075 0.0 
0.94118 0.00865006 0.0 
1.03364 -0.0174088 0.0 
1.03562 -0.0132296 0.0 
0.998705 0.0159803 0.0 
1.041 -0.0348448 0.0 
0.898126 -0.0655228 0.0 
0.999014 0.0150999 0.0 
0.909217 -0.0858134 0.0 
0.163762 -0.0232581 0.0 
0.887331 -0.083988 0.0 
0.932341 0.0161903 0.0 
1.20161 0.0504396 0.0 
1.04404 0.0194788 0.0 
0.238725 -0.0356536 0.0 
1.09651 0.0886089 0.0 
0.998516 0.0161856 0.0 
1.01815 0.22377 0.0 
0.950904 0.177792 0.0 
0.998842 0.017649 0.0 
0.999289 0.0160539 0.0 
0.998714 0.01847 0.0 
0.516661 0.00183792 0.0 
0.967528 0.025249 0.0 
0.96522 0.0227448 0.0 
0.411553 0.135783 0.0 
0.976363 0.0411147 0.0 
0.939871 -0.0444799 0.0 
0.299181 0.101275 0.0 
0.373505 0.184536 0.0 
1.06181 0.297496 0.0 
1.06828 -0.103421 0.0 
0.966991 0.0196521 0.0 
1.13914 0.0516986 0.0 
0.263567 -0.0111793 0.0 
1.00074 0.0116908 0.0 
0.990307 0.0339205 0.0 
1.00956 0.0350697 0.0 
0.983691 0.031268 0.0 
0.999594 0.0167931 0.0 
0.918417 0.0214576 0.0 
1.05779 -0.131933 0.0 
0.918594 0.0759236 0.0 
0.908194 0.132322 0.0 
1.04654 0.0132473 0.0 
1.19318 0.0473236 0.0 
0.829319 0.116918 0.0 
1.05525 -0.0344371 0.0 
0.536633 0.0233881 0.0 
0.97566 0.0437495 0.0 
0.932227 -0.0503671 0.0 
0.698993 0.194667 0.0 
0.897786 0.339285 0.0 
0.987206 0.0264504 0.0 
1.06533 -0.0144172 0.0 
0.966995 0.0866368 0.0 
1.11217 -0.0773724 0.0 
1.11194 0.0641382 0.0 
0.983066 0.0329262 0.0 
0.956083 0.0121817 0.0 
1.19359 0.0523725 0.0 
0.999131 0.0231911 0.0 
1.07616 0.284626 0.0 
1.16766 0.0400437 0.0 
1.12255 -0.0784006 0.0 
0.994047 0.0102343 0.0 
1.01834 0.0456712 0.0 
0.937179 0.00753606 0.0 
0.997208 0.00854892 0.0 
1.01647 0.284917 0.0 
1.05494 -0.022459 0.0 
0.995014 0.152195 0.0 
0.924823 -0.00657526 0.0 
1.0369 0.0313472 0.0 
0.992765 0.0289311 0.0 
1.03717 0.0162764 0.0 
0.962623 0.0259432 0.0 
0.984925 0.0284575 0.0 
1.03694 0.00746452 0.0 
1 0 0.0 
1.06808 -0.00722097 0.0 
0.984645 0.0301129 0.0 
1.04484 -0.00166577 0.0 
0.987499 0.0282427 0.0 
1.03159 -0.0319164 0.0 
1.03372 -0.0280829 0.0 
1.19205 0.102665 0.0 
0.98472 0.0264776 0.0 
1.12814 -0.0829985 0.0 
0.911557 -0.146909 0.0 
1.0664 -0.00307028 0.0 
1.12641 -0.115399 0.0 
1.14766 0.0543035 0.0 
0.931055 0.0274705 0.0 
1.03661 0.0011125 0.0 
0.995903 0.017375 0.0 
0.979637 0.0394712 0.0 
0.983987 0.0112548 0.0 
0.995475 0.0105053 0.0 
0.990018 0.0214379 0.0 
1.08615 0.169463 0.0 
0.948369 0.0247182 0.0 
0.998691 0.0178395 0.0 
1.14612 0.0616877 0.0 
1.16623 0.0437006 0.0 
0.998436 0.0170803 0.0 
0.927395 -0.0576813 0.0 
0.999072 0.0143564 0.0 
1.04199 -0.128683 0.0 
0.994994 0.0179714 0.0 
1.00021 0.0111617 0.0 
0.98064 0.0285408 0.0 
0.988756 0.0284852 0.0 
0.996536 0.0215749 0.0 
0.99184 0.0303273 0.0 
0.881656 -0.105786 0.0 
1 0 0.0 
1 0 0.0 
1.03196 0.0470259 0.0 
0.995198 0.0242319 0.0 
0.212267 -0.00261683 0.0 
0.0577491 0.0144236 0.0 
1.11591 0.218168 0.0 
0.955474 -0.0459459 0.0 
1.19983 0.0801803 0.0 
1.1446 0.0657224 0.0 
0.994422 0.0186822 0.0 
1.1413 0.0736465 0.0 
0.991766 0.0247753 0.0 
0.947765 -0.164127 0.0 
1 0 0.0 
1.15828 0.0373233 0.0 
0.961166 0.190432 0.0 
0.992714 0.0232785 0.0 
1.14246 -0.0859779 0.0 
1.04403 0.0133717 0.0 
1.04448 0.0150318 0.0 
0.982764 0.0292058 0.0 
0.995324 0.0114819 0.0 
1.12687 0.233328 0.0 
1.11839 0.0925995 0.0 
0.99417 0.019739 0.0 
0.14103 0.0106301 0.0 
0.958335 0.00123435 0.0 
0.992064 0.0122849 0.0 
0.995251 0.0121967 0.0 
0.336294 0.00636858 0.0 
0.985445 0.0233884 0.0 
0.948295 -0.0293465 0.0 
0.953452 -0.0068007 0.0 
0.0936834 -0.0103076 0.0 
1 0 0.0 
1.0716 0 0.0 
1.00738 0.166801 0.0 
1.11884 -0.146706 0.0 
0.931801 0.0359789 0.0 
1.11166 -0.130814 0.0 
0.305324 0.00549375 0.0 
0.0794145 -0.00246017 0.0 
0.989595 0.0130185 0.0 
0.985582 0.0218984 0.0 
0.987383 0.0161697 0.0 
0.991623 0.0144524 0.0 
1.10662 -0.17387 0.0 
1.06719 -0.011482 0.0 
1.07935 0.148185 0.0 
1.12144 0.0856037 0.0 
0.210851 0.00467005 0.0 
0.956518 0.0794585 0.0 
1.00052 0.0204047 0.0 
1.10993 0.258057 0.0 
0.972184 0.032696 0.0 
1.06636 -0.015332 0.0 
0.959175 0.0380304 0.0 
1.06589 -0.00820808 0.0 
0.463182 -0.0072638 0.0 
0.0789738 0.00889474 0.0 
0.0615328 0.0116948 0.0 
0.271482 0.00057583 0.0 
0.999804 0.0124382 0.0 
0.0807837 0.00187444 0.0 
1.05989 -0.00292167 0.0 
1.15684 -0.0436297 0.0 
1.06756 -0.00593422 0.0 
1 0 0.0 
0.999717 0.0160996 0.0 
1.06571 -0.000206447 0.0 
0.979016 0.0321384 0.0 
0.0941697 0.00844019 0.0 
1.05967 0.00399612 0.0 
0.076848 0.000201114 0.0 
1.05701 0.0114906 0.0 
0.920108 0.0281505 0.0 
1.04169 -0.00035041 0.0 
0.957208 0.0585061 0.0 
0.999881 0.0213929 0.0 
1.19486 -0.110932 0.0 
0.653002 -0.0110324 0.0 
1.03573 -0.0319624 0.0 
1.04137 -0.0373912 0.0 
1.06525 -0.0453827 0.0 
1.05464 0.00949286 0.0 
1.06687 -0.0136923 0.0 
1.18983 0.0246331 0.0 
1.04131 0.0132237 0.0 
1.24697 0.0804337 0.0 
1.03524 0.028269 0.0 
0.999918 0.0171521 0.0 
1.18278 0.107665 0.0 
1.0643 -0.0204618 0.0 
0.968221 -0.0460614 0.0 
0.947569 0.0743908 0.0 
0.944055 0.0374944 0.0 
1.01435 0.0419588 0.0 
1.13741 0.00123453 0.0 
0.928698 0.0328198 0.0 
1.00588 -0.00607563 0.0 
1.06877 0 0.0 
1.06269 -0.00441842 0.0 
0.933625 0.054613 0.0 
1.1386 -0.164251 0.0 
0.935187 0.160971 0.0 
1.10126 -0.195252 0.0 
0.952415 -0.0200763 0.0 
1.08665 0.251897 0.0 
0.983235 0.0275045 0.0 
1.08757 0.105982 0.0 
0.781735 0.101751 0.0 
1.17528 0.108754 0.0 
0.452517 0.000116737 0.0 
1.07282 0.187399 0.0 
1.00397 0.021519 0.0 
1.05675 0.0143115 0.0 
1.0429 0.007762 0.0 
1.04787 -0.00185999 0.0 
1.04631 -0.000755025 0.0 
0.0571002 0.0146819 0.0 
1.04175 0.00117785 0.0 
-0.0797101 0.025238 0.0 
1.04455 -0.0421061 0.0 
1.0041 0.0351473 0.0 
1.04464 0.00838711 0.0 
1 0 0.0 
0.98322 0.0263359 0.0 
1.19283 0.0985996 0.0 
0.74684 -0.0414525 0.0 
0.999571 0.0155363 0.0 
0.991816 0.0391234 0.0 
1.05035 0.00916402 0.0 
1.0551 0.00429979 0.0 
0.939307 0.189671 0.0 
0.774771 0.130799 0.0 
1.00431 0.0185974 0.0 
1.14123 0.128391 0.0 
0.999044 0.244114 0.0 
0.999088 0.0121384 0.0 
0.986007 0.0292367 0.0 
1.05158 0.000214814 0.0 
0.937526 0.125167 0.0 
0.142309 0.00788466 0.0 
1.05061 0.00235116 0.0 
0.171832 0.0985788 0.0 
1.05077 -0.00186592 0.0 
1.00269 -0.0117522 0.0 
1.01644 0.0472372 0.0 
1.11079 -0.047454 0.0 
1.0473 0.00133156 0.0 
0.95696 -0.00619175 0.0 
0.325628 0.0143936 0.0 
1.06305 -0.0237984 0.0 
0.946474 -0.0013739 0.0 
0.999779 0.0152297 0.0 
1.06049 -0.0286917 0.0 
0.941606 0.0660559 0.0 
1.19733 -0.0464566 0.0 
0.229712 -0.0157349 0.0 
0.586198 -0.0153403 0.0 
0.94097 -0.00456518 0.0 
0.963739 0.273041 0.0 
0.249323 0.0478346 0.0 
0.99572 0.316552 0.0 
0.919625 -0.00307895 0.0 
1.07836 -0.0439651 0.0 
0.678302 0.00670943 0.0 
0.355034 0.116212 0.0 
1.10314 0.0719177 0.0 
0.998686 0.0122405 0.0 
0.527939 0.00790713 0.0 
0.130801 0.0301354 0.0 
0.914236 -0.0433862 0.0 
0.740951 -0.0243934 0.0 
1.03147 0.0449247 0.0 
0.998764 0.0118275 0.0 
1.02558 -0.0986041 0.0 
1.11115 -0.0351727 0.0 
1.17547 0.0280356 0.0 
0.0792762 0.00221092 0.0 
0.936072 -0.057722 0.0 
1.03524 0.042031 0.0 
1.06691 -0.0093514 0.0 
0.937938 -0.00896868 0.0 
0.0719676 0.0131797 0.0 
0.998785 0.0127589 0.0 
1.17398 0.0323716 0.0 
1.05898 -0.0279066 0.0 
0.963149 0.216813 0.0 
1.05322 0.0137197 0.0 
1.0685 -0.00106206 0.0 
1.06861 0.00371794 0.0 
0.954407 0.0377903 0.0 
1.06093 -0.0257047 0.0 
0.99891 0.0139488 0.0 
0.952131 0.00714388 0.0 
1.13496 -0.034226 0.0 
1.05444 0.0189685 0.0 
0.989327 0.00738071 0.0 
0.953312 0.015439 0.0 
0.998949 0.0141369 0.0 
1.05783 0.00381626 0.0 
1.04108 -0.00610722 0.0 
1.06083 -0.022961 0.0 
0.990495 0.00902816 0.0 
1.02171 0.0452362 0.0 
0.998878 0.0133794 0.0 
1.04512 -0.0274493 0.0 
1.06573 0.0179791 0.0 
0.0532183 0.0160119 0.0 
0.0493707 0.0133456 0.0 
1.06905 0.0139324 0.0 
0.905047 -0.0564357 0.0 
0.885058 -0.04824 0.0 
0.873587 0.121171 0.0 
0.999394 0.0140839 0.0 
0.998845 0.0140501 0.0 
0.962763 -0.0131842 0.0 
0.964926 -0.00193341 0.0 
1.03467 0.0246057 0.0 
0.963066 0.235673 0.0 
1.06685 0.153396 0.0 
1.02959 -0.0451345 0.0 
0.0631466 0.00273208 0.0 
1.1633 0.0273995 0.0 
1.10049 0.151677 0.0 
0.998704 0.0135651 0.0 
1.01589 0.0351122 0.0 
1.11524 -0.00635882 0.0 
0.982797 0.0210844 0.0 
0.934307 0.0467146 0.0 
1.03069 -0.029916 0.0 
0.973303 0.0376109 0.0 
0.940913 0.109536 0.0 
0.933959 0.0592879 0.0 
0.78846 -0.0384661 0.0 
0.962805 0.00719347 0.0 
0.785127 -0.0484177 0.0 
1.00099 0.0183302 0.0 
1.032 0.0435476 0.0 
0.953732 -0.0101967 0.0 
0.961498 -0.000976117 0.0 
0.922422 0.0344415 0.0 
1.09927 0.250284 0.0 
0.97229 0.0061491 0.0 
0.94017 0.292388 0.0 
0.945263 0.0330044 0.0 
0.974532 0.227249 0.0 
0.847822 0.286401 0.0 
0.995187 0.00758758 0.0 
1.00106 0 0.0 
0.998816 0.0122184 0.0 
0.977241 0.00159451 0.0 
0.888745 0.154659 0.0 
0.128705 0.00890528 0.0 
1.01081 0.0435208 0.0 
0.980742 0.00722189 0.0 
0.9994 0.0126169 0.0 
0.915442 -0.071883 0.0 
0.916423 0.0332311 0.0 
1.19342 -0.0349337 0.0 
0.998698 0.012492 0.0 
0.943141 0.0713649 0.0 
0.727084 -0.0759355 0.0 
1.03341 -0.0240687 0.0 
0.936017 0.0640416 0.0 
0.995267 0.016316 0.0 
0.944299 0.0277401 0.0 
0.991048 0.0201683 0.0 
0.0780777 0.0137959 0.0 
0.720711 -0.0672656 0.0 
1.04331 -0.00386174 0.0 
1.15864 0.0825839 0.0 
1.13639 -0.0271785 0.0 
0.997702 0.0107785 0.0 
0.982157 0.0187154 0.0 
1.00077 0.203186 0.0 
1.11368 0.159673 0.0 
0.576973 0.0956638 0.0 
0.950611 0.189892 0.0 
0.981531 0.0190843 0.0 
0.245061 -0.0303018 0.0 
0.982528 0.0220184 0.0 
0.997287 0.0128389 0.0 
1.00032 0.0197672 0.0 
0.191551 -0.0271837 0.0 
0.151592 -0.0177485 0.0 
0.98172 0.0303156 0.0 
0.333566 0.0580317 0.0 
1.1919 0.0944752 0.0 
1.01003 0.0430087 0.0 
0.980879 0.0325891 0.0 
0.999684 0.0196629 0.0 
0.977894 0.0113268 0.0 
0.930089 0.0691078 0.0 
0.976555 0.0259216 0.0 
0.851311 0.285605 0.0 
0.461876 -0.0335813 0.0 
0.175781 -0.0166133 0.0 
0.968142 0.0136284 0.0 
0.974761 0.0122411 0.0 
1.05367 0.206032 0.0 
0.258357 -0.0330124 0.0 
0.939732 0.0211734 0.0 
1.0339 -0.0393828 0.0 
0.982276 0.246707 0.0 
0.999244 0.0137193 0.0 
0.922293 0.082265 0.0 
0.972316 0.0312204 0.0 
0.929758 0.143949 0.0 
0.953726 0.157405 0.0 
1.00802 0.256213 0.0 
0.682631 -0.0280761 0.0 
0.937098 -0.0524448 0.0 
1.11698 0.0589102 0.0 
0.46471 0.093761 0.0 
0.92616 -0.059746 0.0 
0.068778 0.00457023 0.0 
0.898783 -0.0127615 0.0 
0.742883 0.13635 0.0 
0.914798 -0.0664664 0.0 
0.921926 -0.0562082 0.0 
0.610078 0.165247 0.0 
1.04704 0.00631018 0.0 
0.94043 0.174138 0.0 
0.879381 -0.00477562 0.0 
0.928072 -0.0538056 0.0 
1.04022 -0.00634671 0.0 
0.336367 0.041456 0.0 
1.03711 -0.00954141 0.0 
0.86578 0.00759174 0.0 
0.893789 0.217819 0.0 
1.04808 -0.00217958 0.0 
0.906281 -0.0881377 0.0 
0.916768 0.183649 0.0 
0.237085 -0.0342336 0.0 
1.13067 0.0617755 0.0 
1.03012 0.171703 0.0 
0.829345 0.380995 0.0 
1.10155 0.16677 0.0 
1.06213 0.2611 0.0 
0.924119 -0.0406417 0.0 
0.684579 -0.0889035 0.0 
0.977661 0.03356 0.0 
0.513347 0.0620011 0.0 
0.918163 -0.052677 0.0 
1.04583 0.0658988 0.0 
0.136311 0.00289934 0.0 
1.04297 0.264793 0.0 
1.05867 0.0401377 0.0 
0.878661 0.10574 0.0 
1.00501 0.0220454 0.0 
0.892488 0.06732 0.0 
0.0837472 0.0143779 0.0 
0.852957 0.0767672 0.0 
0.949305 0.0371362 0.0 
0.947215 0.00398601 0.0 
1.17328 -0.0401966 0.0 
0.762289 0.335768 0.0 
0.847295 0.0895046 0.0 
1.02892 0.0737761 0.0 
1.08137 -0.0961381 0.0 
0.92083 -0.0469005 0.0 
1.03805 0.272966 0.0 
0.964658 0.0170401 0.0 
0.995725 0.0405003 0.0 
0.910008 0.0774386 0.0 
0.924279 0.113208 0.0 
0.910475 0.0356872 0.0 
1.00891 0.0275923 0.0 
0.919524 0.10649 0.0 
0.916792 0.221532 0.0 
0.999176 0.0128036 0.0 
1.09129 -0.0717991 0.0 
0.253012 -0.0365977 0.0 
1.05144 0.252429 0.0 
0.965576 0.203913 0.0 
0.806634 0.151651 0.0 
0.826595 0.0384679 0.0 
0.886041 0.0300877 0.0 
1.04083 0.306159 0.0 
0.999554 0.0174986 0.0 
1.12433 0.142245 0.0 
1.03232 0.227617 0.0 
0.886068 -0.0482506 0.0 
0.922744 -0.00182388 0.0 
0.85791 0.158913 0.0 
0.910755 0.0208644 0.0 
0.884917 0.0150555 0.0 
0.932118 -0.0461155 0.0 
0.933581 0.207997 0.0 
0.995658 0.0305109 0.0 
0.999553 0.0149975 0.0 
0.0674062 0.0180483 0.0 
0.0657512 0.0155818 0.0 
0.912713 0.0280021 0.0 
0.523255 0.153542 0.0 
1.03833 -0.00807731 0.0 
0.921502 -0.0163112 0.0 
0.977946 -0.000904312 0.0 
0.902353 0.0768959 0.0 
0.84154 0.00692668 0.0 
1.08128 -0.0681957 0.0 
0.954962 0.00810569 0.0 
0.975471 0.00923263 0.0 
1.08303 0.269014 0.0 
0.171047 -0.0197823 0.0 
0.929725 0.300875 0.0 
0.972945 0.00273451 0.0 
0.988899 0.0545024 0.0 
1.06811 -0.22961 0.0 
0.968912 0.00478863 0.0 
0.961632 0.0127033 0.0 
0.997696 0.0133968 0.0 
1.03758 -0.00927659 0.0 
0.79019 0.109248 0.0 
0.904254 0.0185974 0.0 
0.9909 0.00552591 0.0 
1.02755 -0.183094 0.0 
0.995145 0.0155898 0.0 
0.935341 0.0243288 0.0 
0.805812 0.168565 0.0 
0.949909 -0.00844074 0.0 
0.998112 0.0102556 0.0 
0.938613 0.00483986 0.0 
0.18758 0.128406 0.0 
0.943737 -0.0083456 0.0 
1.06476 -0.0106815 0.0 
0.953057 0.289433 0.0 
0.0550693 0.0091978 0.0 
1.10017 0.256452 0.0 
0.987966 0.0150316 0.0 
0.872753 -0.11797 0.0 
0.968805 0.00194116 0.0 
0.959542 0.00927687 0.0 
0.959795 0.00465423 0.0 
0.541236 0.134638 0.0 
0.96184 0.00196039 0.0 
0.955925 -0.0135467 0.0 
0.648277 0.184267 0.0 
1.0343 -0.0130516 0.0 
1.03531 0.0461342 0.0 
0.994655 0.26679 0.0 
0.980975 0.0210099 0.0 
0.975392 0.0292533 0.0 
0.964611 0.00404608 0.0 
0.893236 0.0131063 0.0 
0.958884 -0.0178635 0.0 
0.107296 0.0017155 0.0 
0.968665 -0.000133823 0.0 
1.05971 0.0157796 0.0 
0.87576 0.16853 0.0 
0.996467 0.012181 0.0 
1.06587 0.0264163 0.0 
1.05789 0.0965028 0.0 
1.10163 -0.0719433 0.0 
1.09672 0.10679 0.0 
0.976503 -0.00287971 0.0 
0.87638 0.183501 0.0 
0.996611 0.0146073 0.0 
0.996937 0.0112537 0.0 
0.889606 -0.0411223 0.0 
0.978642 0.0260035 0.0 
1.16314 -0.227452 0.0 
0.634433 0.0177684 0.0 
0.941895 0.0418402 0.0 
1.01634 0.303507 0.0 
0.906586 0.353705 0.0 
0.838709 0.132478 0.0 
1.15997 0.0787493 0.0 
0.153345 0.133896 0.0 
1.01664 0.290506 0.0 
1.06461 0.266997 0.0 
1.03917 -0.00644838 0.0 
0.938625 0.0946917 0.0 
0.0433923 0.00756917 0.0 
1.17517 0.149941 0.0 
0.977743 0.0321289 0.0 
0.909713 0.122524 0.0 
1.12496 0.221423 0.0 
0.85108 0.124671 0.0 
-0.0449846 -0.0181004 0.0 
0.978841 0.0302495 0.0 
0.924931 0.0739945 0.0 
0.739858 0.140808 0.0 
0.979682 0.0269725 0.0 
0.911435 0.150658 0.0 
0.995858 0.0126603 0.0 
0.902876 0.101883 0.0 
0.979173 0.0281497 0.0 
0.853693 0.0558989 0.0 
0.830777 0.0226979 0.0 
0.903874 0.164725 0.0 
0.998753 0.0115056 0.0 
0.968875 -0.00462563 0.0 
0.980146 0.0253043 0.0 
0.99908 0.0177703 0.0 
0.962712 -0.00465833 0.0 
0.961686 -0.00834658 0.0 
0.966173 -0.00411177 0.0 
0.938125 -0.0414921 0.0 
0.925726 0.0584339 0.0 
0.926291 0.0885157 0.0 
1.04125 -0.00190532 0.0 
0.989742 0.0322775 0.0 
1.06452 0.0275645 0.0 
0.99918 0.0146592 0.0 
1.07806 -0.00773559 0.0 
1.00536 0.080606 0.0 
0.949639 0.0134395 0.0 
0.976885 0.0273171 0.0 
1.04918 -0.161497 0.0 
1.09946 0.244441 0.0 
1.12353 0.232847 0.0 
0.933239 -0.0321837 0.0 
0.999074 0.0141834 0.0 
0.951137 0.0110839 0.0 
0.996355 0.0137512 0.0 
0.979526 0.00549143 0.0 
1.05506 0.00907417 0.0 
1.04799 -0.172174 0.0 