<VTKFile type="UnstructuredGrid" version="0.1" byte_order="LittleEndian">
  <UnstructuredGrid>
    <Piece NumberOfPoints="9712" NumberOfCells="19403">
      <Points>
        <DataArray type = "Float64" NumberOfComponents="3" format="ascii">
-5 -7 0.0 
15.5 -7 0.0 
15.5 7 0.0 
-5 7 0.0 
-1.6546 1.77742 0.0 
-2.13867 1.86504 0.0 
-1.83467 1.79143 0.0 
1.47969 -2.21179 0.0 
1.36003 -2.38618 0.0 
1.4346 -2.45048 0.0 
-2.04214 1.94165 0.0 
-0.20425 1.17338 0.0 
-2.07648 1.81911 0.0 
-2.00827 1.89081 0.0 
-2.05492 1.98872 0.0 
0.192693 0.536219 0.0 
0.154285 1.75648 0.0 
1.1379 -1.62057 0.0 
-2.11226 1.96977 0.0 
-1.74119 1.75327 0.0 
1.14499 -1.58184 0.0 
-1.94373 2.37229 0.0 
1.50619 -0.664239 0.0 
1.99658 -1.76705 0.0 
1.7229 -1.18344 0.0 
-1.97759 2.52091 0.0 
-0.768046 0.387136 0.0 
1.32657 -1.43969 0.0 
1.90142 0.24821 0.0 
-0.93264 1.51038 0.0 
1.09557 0.967223 0.0 
0.627111 0.757352 0.0 
-2.05707 2.31394 0.0 
1.34027 -2.45136 0.0 
-0.725097 0.397516 0.0 
-0.666094 2.30428 0.0 
-0.73829 -0.279965 0.0 
1.73336 -1.08822 0.0 
1.88466 -1.24421 0.0 
1.50539 -1.23752 0.0 
1.65978 -1.30759 0.0 
-0.0409718 0.542603 0.0 
1.6005 -1.1227 0.0 
1.78439 -0.941488 0.0 
1.86015 -1.54236 0.0 
1.49308 -1.40058 0.0 
2.34892 -1.47149 0.0 
2.13832 -1.3246 0.0 
1.73061 0.751302 0.0 
-0.580328 0.526903 0.0 
1.51013 -2.1595 0.0 
-1.65424 3.45779 0.0 
-1.51397 2.46352 0.0 
1.42773 -2.17867 0.0 
0.304353 0.497878 0.0 
2.24628 0.228293 0.0 
1.51258 -2.27933 0.0 
-1.60346 3.44299 0.0 
-1.71408 2.36227 0.0 
2.17421 0.530405 0.0 
2.42 0.316451 0.0 
-1.63642 3.31911 0.0 
2.53942 -0.995036 0.0 
0.750003 0.810439 0.0 
2.04736 0.40918 0.0 
1.19615 -1.50641 0.0 
2.13474 0.494063 0.0 
0.547924 0.306722 0.0 
-0.2059 0.361394 0.0 
2.2127 0.547693 0.0 
1.41442 -0.597105 0.0 
1.52233 -1.46252 0.0 
-1.84114 2.53924 0.0 
-5 -2.53894 0.0 
2.32127 0.371156 0.0 
-1.69186 3.33379 0.0 
-0.964779 0.566136 0.0 
-1.81311 2.48387 0.0 
-1.78557 3.38304 0.0 
1.48278 0.914136 0.0 
2.51531 -1.89689 0.0 
1.20982 -0.330514 0.0 
0.408434 0.319657 0.0 
0.95023 0.60993 0.0 
-0.752349 0.440796 0.0 
-0.998248 0.564019 0.0 
-1.73165 3.36299 0.0 
1.24353 -1.49063 0.0 
0.942095 0.817189 0.0 
-1.77816 2.47096 0.0 
2.48183 -1.95479 0.0 
1.33574 -1.77854 0.0 
0.823335 1.12085 0.0 
-0.36308 0.598468 0.0 
0.745466 0.783414 0.0 
-1.88344 2.8521 0.0 
-1.79794 3.52221 0.0 
3.0087 0.272815 0.0 
-1.81486 2.66014 0.0 
0.375911 -0.403668 0.0 
-0.68323 0.487288 0.0 
-0.34187 -0.274923 0.0 
-0.293875 -0.201368 0.0 
1.61018 -1.767 0.0 
-0.448275 -0.347267 0.0 
-1.08687 0.352015 0.0 
1.29257 -1.76345 0.0 
1.67658 -1.49551 0.0 
1.19193 0.533009 0.0 
1.21582 -1.91654 0.0 
-0.36438 -0.346225 0.0 
-0.92534 0.330346 0.0 
2.3836 0.287756 0.0 
1.68841 0.639887 0.0 
1.59001 -1.89458 0.0 
1.14818 -1.92143 0.0 
1.28996 -2.19426 0.0 
1.37603 -1.8763 0.0 
1.23834 -2.09141 0.0 
1.11702 -2.06287 0.0 
0.691829 0.463808 0.0 
1.46523 -2.03459 0.0 
-0.123547 0.424486 0.0 
-1.3311 2.12174 0.0 
1.08169 -1.90074 0.0 
1.87975 -2.15971 0.0 
1.10131 -1.78593 0.0 
1.13722 0.534683 0.0 
1.42465 -1.59031 0.0 
-1.45435 2.47344 0.0 
1.41998 -1.98207 0.0 
0.463917 1.8787 0.0 
-1.72896 2.89571 0.0 
1.12419 -1.84975 0.0 
1.59054 -1.20634 0.0 
0.46124 0.621002 0.0 
0.806438 -1.00204 0.0 
2.1804 0.349761 0.0 
2.21142 -1.6418 0.0 
1.10152 -0.274558 0.0 
2.23388 0.387302 0.0 
0.137769 0.567007 0.0 
1.88736 0.267391 0.0 
1.26821 -1.94267 0.0 
0.21033 -0.605707 0.0 
2.61094 -1.50046 0.0 
0.819837 0.743337 0.0 
-1.4303 2.07799 0.0 
1.82013 0.322126 0.0 
-1.47649 2.2099 0.0 
1.15745 -0.274223 0.0 
-1.81198 2.24994 0.0 
2.34337 -1.67775 0.0 
-1.13329 1.37877 0.0 
-0.828215 1.05292 0.0 
2.46752 -1.53452 0.0 
-1.69915 2.18529 0.0 
-0.404416 -0.286271 0.0 
-1.23501 1.31766 0.0 
2.11757 -1.50659 0.0 
-1.08535 1.28274 0.0 
2.58548 -1.70783 0.0 
0.24729 -0.572345 0.0 
-1.66963 2.25319 0.0 
1.58322 -1.62308 0.0 
-0.367923 -0.306026 0.0 
0.391521 1.44485 0.0 
1.88977 -2.46319 0.0 
1.5943 -1.53613 0.0 
-0.357143 -0.23651 0.0 
0.82621 0.80563 0.0 
-1.59261 2.31884 0.0 
-0.47244 -0.307516 0.0 
-0.40334 -0.326688 0.0 
-2.00063 2.11543 0.0 
1.55514 -1.95078 0.0 
-1.40431 2.26352 0.0 
-0.0265928 0.573714 0.0 
1.17093 1.10579 0.0 
-1.77907 2.22111 0.0 
0.682788 0.329642 0.0 
-0.54475 2.15572 0.0 
-0.288592 0.289433 0.0 
-1.43199 2.16349 0.0 
-1.45029 2.25134 0.0 
1.5535 -1.79992 0.0 
-1.06406 1.08381 0.0 
1.72954 1.44966 0.0 
0.582806 0.515814 0.0 
0.582876 -0.679913 0.0 
1.32351 -0.355916 0.0 
-0.47505 0.577092 0.0 
-0.371167 0.227715 0.0 
1.52235 -1.8529 0.0 
-0.429822 -0.244811 0.0 
-0.53237 -0.24648 0.0 
-0.393983 -0.210364 0.0 
0.652895 0.317361 0.0 
1.55812 -1.70765 0.0 
1.63021 0.325622 0.0 
0.442731 0.358729 0.0 
1.22925 -1.85192 0.0 
1.43517 -1.79082 0.0 
1.39317 -1.6984 0.0 
1.62965 0.295952 0.0 
0.905462 0.793465 0.0 
1.04036 -1.64811 0.0 
2.1131 -1.72466 0.0 
-0.743911 0.369492 0.0 
1.14427 -1.99314 0.0 
1.26033 -2.0209 0.0 
-1.70955 2.07308 0.0 
0.910023 -1.62976 0.0 
-0.313059 -0.0954838 0.0 
-1.77334 2.3988 0.0 
-0.311958 -0.24042 0.0 
2.53315 0.325608 0.0 
-0.273728 -0.226719 0.0 
-0.646401 0.379627 0.0 
1.52426 0.616074 0.0 
2.21703 -1.79499 0.0 
2.71108 0.312216 0.0 
0.759924 1.093 0.0 
-1.69271 2.12368 0.0 
0.255794 0.540969 0.0 
0.0534699 0.562158 0.0 
-1.5679 2.22408 0.0 
-1.66906 2.45165 0.0 
-1.51895 2.09449 0.0 
2.16948 0.408238 0.0 
-0.818806 0.680638 0.0 
-0.826868 0.642087 0.0 
0.519855 0.276992 0.0 
-0.716682 1.18602 0.0 
-0.649974 -0.148775 0.0 
0.457368 0.256619 0.0 
0.517407 0.248194 0.0 
0.327129 0.39802 0.0 
0.533249 -0.878832 0.0 
-0.870735 0.634904 0.0 
1.19219 1.07557 0.0 
2.35922 0.366028 0.0 
-1.66911 3.66723 0.0 
-0.857603 1.54934 0.0 
-0.379189 2.30131 0.0 
-0.941007 1.36523 0.0 
-1.58662 2.49682 0.0 
-0.545297 0.352587 0.0 
0.327944 -0.744683 0.0 
-0.312756 0.524741 0.0 
-0.107843 0.506233 0.0 
2.13378 -2.36584 0.0 
1.52689 0.686953 0.0 
-0.119983 0.327909 0.0 
1.02161 -1.53072 0.0 
1.51507 0.39695 0.0 
-0.674484 1.02605 0.0 
-0.564724 -0.148435 0.0 
0.409388 0.290913 0.0 
0.252349 0.30842 0.0 
-1.09282 1.45998 0.0 
1.45674 -1.54484 0.0 
-0.266777 0.782169 0.0 
0.91327 -0.874389 0.0 
1.01208 1.13309 0.0 
-0.897136 1.35063 0.0 
-0.846484 0.489353 0.0 
1.47563 0.663768 0.0 
-1.22282 2.05021 0.0 
0.348906 0.416714 0.0 
1.41913 0.964648 0.0 
0.933289 -0.839038 0.0 
-1.85066 1.40221 0.0 
0.142477 1.99435 0.0 
-0.717809 0.341194 0.0 
-2.21177 1.41584 0.0 
0.396571 0.350929 0.0 
1.25171 -1.60721 0.0 
0.736798 0.393502 0.0 
-0.661427 0.19031 0.0 
2.18751 -2.32769 0.0 
-1.00908 1.6747 0.0 
2.21416 -2.07269 0.0 
-0.779194 0.642011 0.0 
-1.02312 1.3939 0.0 
2.08809 -2.24876 0.0 
-5 -4.48794 0.0 
1.61792 -1.46215 0.0 
-0.974627 1.38947 0.0 
1.81166 -2.48446 0.0 
-1.03635 1.47474 0.0 
0.869004 -1.74424 0.0 
0.956579 -1.78598 0.0 
1.07495 0.540689 0.0 
-1.08005 1.37763 0.0 
0.914755 -0.803058 0.0 
0.611759 -0.305322 0.0 
1.70043 -1.41356 0.0 
0.75708 -0.631542 0.0 
1.21215 1.01979 0.0 
-0.586902 0.440014 0.0 
1.9251 -2.56336 0.0 
-1.58261 1.91091 0.0 
-0.746541 1.26087 0.0 
-1.49915 1.13657 0.0 
-1.46675 0.971536 0.0 
-1.05881 0.930935 0.0 
0.71826 0.415078 0.0 
-0.701697 0.526982 0.0 
-1.56194 2.05157 0.0 
1.15988 0.991244 0.0 
1.38676 0.949615 0.0 
-1.61697 2.02689 0.0 
1.13748 -0.357331 0.0 
-1.8456 2.04561 0.0 
0.253686 -0.756334 0.0 
-1.53603 1.86509 0.0 
-1.43465 0.924137 0.0 
-1.00273 1.27416 0.0 
-1.03063 1.5132 0.0 
-1.32483 1.94769 0.0 
-0.965552 1.61445 0.0 
-0.239859 -0.245939 0.0 
-5 3.01776 0.0 
-5 -0.248741 0.0 
0.517491 1.87079 0.0 
-1.18776 1.8875 0.0 
2.27458 0.36201 0.0 
1.9794 0.331487 0.0 
0.503086 0.510306 0.0 
1.26387 -0.370702 0.0 
1.24483 0.550197 0.0 
1.12871 0.979556 0.0 
-1.48659 1.83259 0.0 
1.0672 0.958366 0.0 
-1.16856 1.61214 0.0 
-0.218637 -0.230696 0.0 
-5 1.81431 0.0 
1.37014 1.04658 0.0 
0.0950623 0.557621 0.0 
-1.23613 1.67303 0.0 
0.953731 -0.709843 0.0 
2.07568 -1.85385 0.0 
2.10836 -1.82014 0.0 
-0.994952 1.33552 0.0 
-1.86986 1.52312 0.0 
0.515812 0.447542 0.0 
0.842446 0.992035 0.0 
-1.42353 1.8223 0.0 
2.091 0.354014 0.0 
-0.937663 0.401428 0.0 
-1.69305 1.41997 0.0 
-1.82465 1.55127 0.0 
2.15192 0.384657 0.0 
-1.17972 1.37998 0.0 
-0.718866 -0.0130647 0.0 
-0.927867 0.290435 0.0 
1.56509 0.300406 0.0 
-5 -3.04052 0.0 
9.98027 -7 0.0 
0.176009 0.694641 0.0 
0.597997 -0.559941 0.0 
-0.546583 0.4849 0.0 
0.602022 -0.657834 0.0 
2.17737 0.379672 0.0 
1.89809 0.287017 0.0 
-1.58883 1.35796 0.0 
-1.2284 1.37063 0.0 
-1.43937 1.35342 0.0 
-1.59664 1.47263 0.0 
0.577431 -0.368705 0.0 
1.5263 -1.51093 0.0 
0.479666 0.796509 0.0 
0.894995 1.01463 0.0 
2.22312 0.363016 0.0 
-0.320562 0.726481 0.0 
-1.30188 2.41386 0.0 
0.43802 0.434693 0.0 
-0.761697 0.762024 0.0 
1.45688 -1.49591 0.0 
-0.65072 0.676835 0.0 
1.6097 -1.41509 0.0 
2.25768 0.399237 0.0 
1.85518 0.299709 0.0 
2.14618 0.290757 0.0 
2.25222 0.371677 0.0 
-1.93063 2.91367 0.0 
1.52717 0.319618 0.0 
1.67964 -1.62237 0.0 
1.35962 -0.439169 0.0 
1.63007 -1.54335 0.0 
-5 -0.764504 0.0 
-1.61377 2.62271 0.0 
1.73865 -1.57725 0.0 
-0.908306 1.23669 0.0 
1.60766 0.330292 0.0 
1.82509 -1.63054 0.0 
1.90521 0.312457 0.0 
1.98719 -1.6488 0.0 
-0.528791 0.39225 0.0 
1.94978 -2.39003 0.0 
-0.472559 0.718465 0.0 
-1.28058 2.26572 0.0 
0.881581 -0.556282 0.0 
2.26369 0.42542 0.0 
0.917309 -1.69962 0.0 
0.853954 -1.60945 0.0 
1.30086 -0.404316 0.0 
1.99565 -2.46852 0.0 
1.49445 -1.47573 0.0 
1.68285 0.863315 0.0 
2.03074 -2.37549 0.0 
2.52279 -0.506167 0.0 
2.56049 -1.76899 0.0 
-1.52889 2.56597 0.0 
2.81136 -0.570221 0.0 
1.3688 -1.46095 0.0 
1.29524 -0.373946 0.0 
-0.350504 0.671928 0.0 
-0.590282 0.564035 0.0 
-0.054366 2.16706 0.0 
1.50819 1.22548 0.0 
-0.548222 0.453941 0.0 
2.19936 -2.5207 0.0 
12.2704 -7 0.0 
1.6811 -1.36761 0.0 
-0.449261 0.559535 0.0 
0.537017 -0.527614 0.0 
-0.00733391 0.553304 0.0 
0.494109 -0.356396 0.0 
-0.7939 0.0827441 0.0 
0.39888 0.467333 0.0 
-1.04288 1.34095 0.0 
0.605019 1.02824 0.0 
0.847559 0.374727 0.0 
1.00336 0.618307 0.0 
2.1955 0.399186 0.0 
0.656973 0.401158 0.0 
-0.998431 2.73564 0.0 
[...]
<PointData>
  <DataArray type = "Float64" Name="VitesseP1" NumberOfComponents="3" format="ascii">
1 0 0.0 
1.09018 0 0.0 
1.03452 0 0.0 
1 0 0.0 
0.994684 0.0155733 0.0 
0.996955 0.0109379 0.0 
0.995552 0.0133969 0.0 
1.04304 -0.00299243 0.0 
1.04504 -0.00400707 0.0 
1.05071 -0.003412 0.0 
0.997793 0.011855 0.0 
0.986728 0.0722884 0.0 
0.99665 0.0112675 0.0 
0.996865 0.0120467 0.0 
0.998937 0.0118555 0.0 
0.992506 0.217837 0.0 
1.01989 0.0531602 0.0 
1.04979 -0.0256067 0.0 
0.998859 0.011283 0.0 
0.995089 0.0143178 0.0 
1.05522 -0.026574 0.0 
0.998913 0.013148 0.0 
1.16105 -0.0258747 0.0 
1.04716 0.0127596 0.0 
1.06485 -0.00172798 0.0 
0.998888 0.0127252 0.0 
0.944626 0.00855655 0.0 
1.0639 -0.0216303 0.0 
0.0654786 0.000364747 0.0 
0.988898 0.0311106 0.0 
1.14299 0.0672188 0.0 
1.11021 0.141775 0.0 
0.998896 0.0121683 0.0 
1.03485 -0.0171054 0.0 
0.941472 0.0121388 0.0 
1.00557 0.0300096 0.0 
0.937009 -0.0514155 0.0 
1.08589 -0.00159682 0.0 
1.05786 0.00900663 0.0 
1.05517 -0.0153213 0.0 
1.05815 -0.00473254 0.0 
0.927071 0.151356 0.0 
1.07624 -0.010896 0.0 
1.12756 0.00170543 0.0 
1.06917 0.00747571 0.0 
1.06451 -0.013407 0.0 
1.06484 0.0349397 0.0 
1.05906 0.0246234 0.0 
1.20118 0.0272704 0.0 
0.939643 0.0354419 0.0 
1.04173 -0.00299302 0.0 
1.00248 0.0120259 0.0 
0.9999 0.0172433 0.0 
1.04114 -0.00459934 0.0 
1.03797 0.242848 0.0 
0.0332147 0.0132101 0.0 
1.04484 -0.00191035 0.0 
1.0027 0.0124111 0.0 
0.999155 0.0153783 0.0 
1.16706 -0.00301294 0.0 
0.147803 -0.00167642 0.0 
1.00242 0.0126802 0.0 
1.09788 0.0598448 0.0 
1.12312 0.120271 0.0 
0.5619 0.00279609 0.0 
1.06144 -0.0265039 0.0 
1.07431 -0.000810158 0.0 
0.55714 0.134557 0.0 
0.862915 0.0852474 0.0 
1.18818 -0.00767089 0.0 
1.20331 -0.0376242 0.0 
1.06785 -0.0109881 0.0 
0.99911 0.0138466 0.0 
1 0 0.0 
0.304989 -0.0121745 0.0 
1.00218 0.012276 0.0 
0.96818 0.0104442 0.0 
0.99913 0.0142023 0.0 
1.00178 0.0114904 0.0 
1.17476 0.0345452 0.0 
1.03862 0.0250077 0.0 
0.753401 -0.0404694 0.0 
0.94905 0.262851 0.0 
1.17357 0.11472 0.0 
0.94626 0.0140834 0.0 
0.96999 0.00874508 0.0 
1.00208 0.0119053 0.0 
1.06284 -0.0247052 0.0 
1.14391 0.0969692 0.0 
0.999197 0.0145475 0.0 
1.04501 0.0293286 0.0 
1.04264 -0.0139339 0.0 
1.09699 0.0789521 0.0 
0.935627 0.0698216 0.0 
1.12545 0.124418 0.0 
0.999943 0.0126297 0.0 
1.00217 0.0107296 0.0 
0.0288177 -0.160884 0.0 
0.999308 0.0137688 0.0 
1.19175 -0.234522 0.0 
0.94416 0.0228389 0.0 
0.918956 -0.0884962 0.0 
0.915746 -0.0746319 0.0 
1.04713 -0.00334249 0.0 
0.924557 -0.0783758 0.0 
0.967233 -0.00825933 0.0 
1.0423 -0.0159124 0.0 
1.06963 -0.00236009 0.0 
1.19681 0.0830546 0.0 
1.03809 -0.0154324 0.0 
0.920284 -0.0887305 0.0 
0.954936 -0.00376979 0.0 
0.0907125 0.00822862 0.0 
1.20419 0.0340987 0.0 
1.04427 -0.00311939 0.0 
1.03651 -0.0173022 0.0 
1.0387 -0.00726388 0.0 
1.04195 -0.0107938 0.0 
1.0359 -0.0111627 0.0 
1.03286 -0.0162326 0.0 
1.16414 0.183725 0.0 
1.03962 -0.00559355 0.0 
0.877462 0.125783 0.0 
0.999162 0.0207344 0.0 
1.03533 -0.0198939 0.0 
1.04192 0.00604521 0.0 
1.03742 -0.0222898 0.0 
1.19627 0.0905035 0.0 
1.06147 -0.0139392 0.0 
1.00015 0.0178603 0.0 
1.03956 -0.00772 0.0 
1.02958 0.0465374 0.0 
1.00078 0.0136453 0.0 
1.03713 -0.0199165 0.0 
1.05979 -0.0102789 0.0 
1.0878 0.188745 0.0 
1.06909 -0.0730137 0.0 
0.159174 0.00488002 0.0 
1.05509 0.0237892 0.0 
0.45676 -0.0391107 0.0 
0.401611 -0.00754336 0.0 
0.977894 0.196255 0.0 
0.0706935 -0.00567796 0.0 
1.0382 -0.0132246 0.0 
1.03112 -0.160541 0.0 
1.0531 0.0508829 0.0 
1.1397 0.120225 0.0 
0.998855 0.0193581 0.0 
0.0807679 0.00501419 0.0 
0.999035 0.0184286 0.0 
0.409766 -0.0167205 0.0 
0.998828 0.0144852 0.0 
1.04691 0.0286607 0.0 
0.985292 0.0243853 0.0 
0.973563 0.0341835 0.0 
1.05787 0.0396326 0.0 
0.998663 0.0157279 0.0 
0.922944 -0.0796305 0.0 
0.984291 0.0208177 0.0 
1.06838 0.0213524 0.0 
0.981731 0.0252446 0.0 
1.03443 0.0358321 0.0 
1.04047 -0.171053 0.0 
0.998953 0.0160109 0.0 
1.05922 -0.00593311 0.0 
0.920373 -0.0860039 0.0 
1.03451 0.0691663 0.0 
1.04891 -0.000783254 0.0 
1.06816 -0.00633368 0.0 
0.916601 -0.0818227 0.0 
1.13309 0.112081 0.0 
0.999273 0.0167806 0.0 
0.927824 -0.0728186 0.0 
0.922405 -0.0826949 0.0 
0.998671 0.0125712 0.0 
1.04201 -0.00386681 0.0 
0.999538 0.0192438 0.0 
0.939143 0.151299 0.0 
1.13087 0.0485082 0.0 
0.998771 0.0148415 0.0 
0.634161 0.110502 0.0 
1.00621 0.0340966 0.0 
0.863475 0.0452224 0.0 
0.998991 0.019145 0.0 
0.99934 0.0186688 0.0 
1.04539 -0.00530788 0.0 
0.9741 0.0237528 0.0 
1.07155 -0.03902 0.0 
1.14169 0.199331 0.0 
1.10938 -0.128848 0.0 
0.871582 -0.030477 0.0 
0.938322 0.0516724 0.0 
0.875152 0.0161978 0.0 
1.04435 -0.00594766 0.0 
0.924184 -0.0731996 0.0 
0.933291 -0.0626751 0.0 
0.918911 -0.074356 0.0 
0.581589 0.110782 0.0 
1.05039 -0.00613844 0.0 
0.115426 0.0177466 0.0 
1.03743 0.264753 0.0 
1.03952 -0.0163506 0.0 
1.04412 -0.0100017 0.0 
1.04884 -0.0133314 0.0 
0.0947183 0.0256026 0.0 
1.14309 0.103668 0.0 
1.04382 -0.0285408 0.0 
1.04821 0.0180604 0.0 
0.941521 0.00839219 0.0 
1.0341 -0.0161724 0.0 
1.0362 -0.011876 0.0 
0.998783 0.0156182 0.0 
1.04097 -0.0338607 0.0 
0.898687 -0.0656535 0.0 
0.999121 0.0147196 0.0 
0.909845 -0.0858471 0.0 
0.214545 -0.014679 0.0 
0.887975 -0.0840482 0.0 
0.932723 0.0158981 0.0 
1.20229 0.046059 0.0 
1.0442 0.0215522 0.0 
0.290146 -0.0384675 0.0 
1.09641 0.0865786 0.0 
0.998609 0.0158158 0.0 
1.01923 0.222754 0.0 
0.951717 0.177026 0.0 
0.99896 0.017245 0.0 
0.999409 0.0156478 0.0 
0.998816 0.0180697 0.0 
0.556234 -0.00356619 0.0 
0.967752 0.0248918 0.0 
0.965455 0.022404 0.0 
0.414292 0.135689 0.0 
0.976667 0.0406044 0.0 
0.94026 -0.0445284 0.0 
0.301418 0.101451 0.0 
0.375153 0.184369 0.0 
1.06348 0.29659 0.0 
1.06948 -0.102644 0.0 
0.967212 0.0193284 0.0 
1.13854 0.0487866 0.0 
0.295269 -0.0109647 0.0 
1.00069 0.0113143 0.0 
0.990509 0.0334183 0.0 
1.00973 0.0345232 0.0 
0.98392 0.030814 0.0 
0.999725 0.0163648 0.0 
0.918855 0.0211463 0.0 
1.05905 -0.131343 0.0 
0.919113 0.0754267 0.0 
0.908879 0.131736 0.0 
1.04775 0.0147556 0.0 
1.19368 0.0430333 0.0 
0.830036 0.116517 0.0 
1.05586 -0.0333545 0.0 
0.560187 0.0224723 0.0 
0.975869 0.0432427 0.0 
0.932659 -0.0504252 0.0 
0.702117 0.194552 0.0 
0.899324 0.338799 0.0 
0.987401 0.0260306 0.0 
1.06589 -0.0130434 0.0 
0.967407 0.0859635 0.0 
1.11352 -0.0764146 0.0 
1.11144 0.0617299 0.0 
0.983304 0.032459 0.0 
0.956354 0.0119048 0.0 
1.19415 0.0482245 0.0 
0.999261 0.0227373 0.0 
1.07774 0.283619 0.0 
1.16749 0.0360943 0.0 
1.124 -0.0774408 0.0 
0.994132 0.00997775 0.0 
1.01834 0.0449148 0.0 
0.937538 0.00728292 0.0 
0.997256 0.00831822 0.0 
1.01852 0.284064 0.0 
1.0551 -0.0212049 0.0 
1.00081 0.151098 0.0 
0.92523 -0.00677504 0.0 
1.03742 0.033873 0.0 
0.992942 0.0284652 0.0 
1.0379 0.0183558 0.0 
0.962875 0.0255859 0.0 
0.985137 0.0280257 0.0 
1.03777 0.00906212 0.0 
1 0 0.0 
1.06898 -0.00577838 0.0 
0.984865 0.0296664 0.0 
1.04705 1.61557e-05 0.0 
0.987698 0.0278046 0.0 
1.03131 -0.030968 0.0 
1.03358 -0.0270654 0.0 
1.19346 0.0995703 0.0 
0.984927 0.026065 0.0 
1.12967 -0.0820609 0.0 
0.913681 -0.146641 0.0 
1.06758 -0.00160193 0.0 
1.12817 -0.114663 0.0 
1.14737 0.0512333 0.0 
0.93145 0.0271302 0.0 
1.03743 0.00203792 0.0 
0.996029 0.0170098 0.0 
0.979909 0.0389603 0.0 
0.98415 0.0109885 0.0 
0.995528 0.0102462 0.0 
0.990105 0.0210882 0.0 
1.09009 0.167898 0.0 
0.948689 0.0243792 0.0 
0.99878 0.0174532 0.0 
1.14604 0.0587293 0.0 
1.16611 0.0398999 0.0 
0.998522 0.0167071 0.0 
0.93165 -0.0570971 0.0 
0.999128 0.0140216 0.0 
1.04316 -0.12811 0.0 
0.995132 0.0176031 0.0 
1.00022 0.010893 0.0 
0.980874 0.0281202 0.0 
0.988949 0.028041 0.0 
0.996685 0.0211549 0.0 
0.992021 0.0298537 0.0 
0.882343 -0.105846 0.0 
1 0 0.0 
1 0 0.0 
1.03148 0.0458572 0.0 
0.995376 0.0237905 0.0 
0.242448 -0.00666204 0.0 
0.0619293 0.0119799 0.0 
1.11726 0.216628 0.0 
0.96025 -0.0451911 0.0 
1.20117 0.0767176 0.0 
1.1446 0.0628342 0.0 
0.994566 0.0183086 0.0 
1.14144 0.07089 0.0 
0.991926 0.0243574 0.0 
0.948463 -0.164228 0.0 
1 0 0.0 
1.15753 0.0336699 0.0 
0.962031 0.189627 0.0 
0.992868 0.0228701 0.0 
1.14426 -0.0850667 0.0 
1.04431 0.0152516 0.0 
1.04463 0.0169508 0.0 
0.982991 0.0287733 0.0 
0.995399 0.0112099 0.0 
1.12876 0.231894 0.0 
1.11862 0.0903538 0.0 
0.994322 0.0193543 0.0 
0.163434 0.00211324 0.0 
0.958591 0.00101583 0.0 
0.992173 0.0120053 0.0 
0.995329 0.0119156 0.0 
0.372397 -0.000801891 0.0 
0.985637 0.0230036 0.0 
0.948591 -0.0294503 0.0 
0.953735 -0.00697858 0.0 
0.0990458 -0.00972242 0.0 
1 0 0.0 
1.06896 0 0.0 
1.00815 0.165761 0.0 
1.12031 -0.14608 0.0 
0.932204 0.0356024 0.0 
1.11331 -0.130153 0.0 
0.336408 -0.00172507 0.0 
0.0820028 -0.00297723 0.0 
0.989727 0.012732 0.0 
0.985768 0.0215278 0.0 
0.987539 0.0158528 0.0 
0.991743 0.014148 0.0 
1.10875 -0.173484 0.0 
1.06789 -0.0100726 0.0 
1.08012 0.146589 0.0 
1.12155 0.0832726 0.0 
0.235967 -0.00254093 0.0 
0.956935 0.0788486 0.0 
1.00067 0.0199247 0.0 
1.11164 0.256812 0.0 
0.972399 0.0322893 0.0 
1.0671 -0.0139706 0.0 
0.959464 0.0376103 0.0 
1.067 -0.00677679 0.0 
0.494418 -0.0107012 0.0 
0.0821041 0.00840467 0.0 
0.0615125 0.0188661 0.0 
0.294536 -0.00623066 0.0 
0.999835 0.0120782 0.0 
0.0859365 0.00242158 0.0 
1.05995 -0.0014202 0.0 
1.16085 -0.0425873 0.0 
1.06815 -0.00446518 0.0 
1 0 0.0 
0.99985 0.0156656 0.0 
1.06612 0.00132883 0.0 
0.979267 0.0316917 0.0 
0.102809 0.00846126 0.0 
1.05973 0.00558432 0.0 
0.0789332 -0.000513137 0.0 
1.05706 0.0131836 0.0 
0.920544 0.0278136 0.0 
1.04355 0.00100503 0.0 
0.957555 0.0579859 0.0 
1.00003 0.0209272 0.0 
1.19599 -0.109993 0.0 
0.689624 -0.0130792 0.0 
1.03547 -0.03096 0.0 
1.04156 -0.0364547 0.0 
1.0695 -0.0444754 0.0 
1.05637 0.0103696 0.0 
1.06769 -0.012312 0.0 
1.18986 0.0207207 0.0 
1.04292 0.0147257 0.0 
1.24552 0.0822116 0.0 
1.03603 0.0312638 0.0 
1.00006 0.0167036 0.0 
1.1782 0.105391 0.0 
1.06514 -0.0191563 0.0 
0.973194 -0.0453124 0.0 
0.947998 0.0738272 0.0 
0.944412 0.0370976 0.0 
1.01435 0.0412793 0.0 
1.13444 -0.002229 0.0 
0.929109 0.0324591 0.0 
1.00666 -0.00603104 0.0 
1.0664 0 0.0 
1.06418 -0.00298769 0.0 
0.934053 0.0541588 0.0 
1.13993 -0.163666 0.0 
0.935943 0.160269 0.0 
1.10323 -0.194963 0.0 
0.952679 -0.0202063 0.0 
1.08802 0.250664 0.0 
0.983454 0.0270863 0.0 
1.08778 0.104175 0.0 
0.790495 0.101067 0.0 
1.17618 0.105862 0.0 
0.489285 -0.00540539 0.0 
1.07657 0.18608 0.0 
1.00421 0.0209218 0.0 
1.05683 0.0160512 0.0 
1.04337 0.00950128 0.0 
1.04771 -0.000330618 0.0 
1.04634 0.000795849 0.0 
0.076769 0.017269 0.0 
1.04239 0.00277549 0.0 
-0.0321813 0.0230207 0.0 
1.0705 -0.0417589 0.0 
1.00427 0.0345726 0.0 
1.04495 0.0101317 0.0 
1 0 0.0 
0.983435 0.0259285 0.0 
1.19408 0.0954685 0.0 
0.78245 -0.0387953 0.0 
0.9997 0.0151135 0.0 
0.992025 0.0385654 0.0 
1.0502 0.0108571 0.0 
1.05501 0.00590335 0.0 
0.940158 0.188948 0.0 
0.781531 0.13037 0.0 
1.0045 0.0179501 0.0 
1.13752 0.125372 0.0 
1.00017 0.243222 0.0 
0.9992 0.0117828 0.0 
0.986119 0.0288336 0.0 
1.05137 0.00176907 0.0 
0.938151 0.124497 0.0 
0.18449 0.0162658 0.0 
1.05039 0.00393757 0.0 
0.173872 0.0988593 0.0 
1.05055 -0.000344249 0.0 
1.02723 -0.0143533 0.0 
1.01647 0.0464549 0.0 
1.12954 -0.0489167 0.0 
1.04721 0.0029121 0.0 
0.957224 -0.00637149 0.0 
0.346066 0.0141233 0.0 
1.06372 -0.022538 0.0 
0.94679 -0.00158178 0.0 
0.999908 0.0148049 0.0 
1.06126 -0.0274939 0.0 
0.942032 0.0655408 0.0 
1.19825 -0.0452154 0.0 
0.280347 -0.013052 0.0 
0.620483 -0.0166221 0.0 
0.941312 -0.00476054 0.0 
0.964888 0.272314 0.0 
0.251574 0.0478498 0.0 
0.997179 0.31588 0.0 
0.948787 -0.00723396 0.0 
1.07967 -0.0428524 0.0 
0.716342 0.000508677 0.0 
0.357577 0.116304 0.0 
1.10278 0.0696689 0.0 
0.998788 0.0119017 0.0 
0.568676 0.0016441 0.0 
0.16757 0.0400093 0.0 
0.914665 -0.0435309 0.0 
0.776283 -0.0236293 0.0 
1.03292 0.0476861 0.0 
0.998837 0.0115133 0.0 
1.02669 -0.0978406 0.0 
1.11561 -0.0341394 0.0 
1.17519 0.0229222 0.0 
0.0819711 0.00151894 0.0 
0.936527 -0.0577309 0.0 
1.03484 0.0438636 0.0 
1.0679 -0.007931 0.0 
0.938293 -0.00914539 0.0 
0.0729155 0.00774229 0.0 
0.998873 0.0124243 0.0 
1.17393 0.0278741 0.0 
1.05955 -0.0267233 0.0 
0.964113 0.216018 0.0 
1.05315 0.0176699 0.0 
1.0695 0.000433924 0.0 
1.06964 0.00524975 0.0 
0.954719 0.0373784 0.0 
1.06154 -0.0244833 0.0 
0.999012 0.0135868 0.0 
0.952419 0.00689409 0.0 
1.13937 -0.033148 0.0 
1.0565 0.020383 0.0 
0.989442 0.0071504 0.0 
0.9536 0.0151453 0.0 
0.999055 0.013767 0.0 
1.0597 0.00526304 0.0 
1.04232 -0.00448914 0.0 
1.06132 -0.0217077 0.0 
0.990606 0.00878281 0.0 
1.02315 0.048218 0.0 
0.99893 0.0130615 0.0 
1.04498 -0.0263081 0.0 
1.06716 0.0195398 0.0 
0.0536476 0.0180193 0.0 
0.0559964 0.0120607 0.0 
1.07009 0.0155348 0.0 
0.905532 -0.0565735 0.0 
0.890005 -0.0477079 0.0 
0.880945 0.120128 0.0 
0.999515 0.0136878 0.0 
0.998936 0.0136961 0.0 
0.962998 -0.013323 0.0 
0.965147 -0.00213381 0.0 
1.03529 0.0277367 0.0 
0.964092 0.234901 0.0 
1.06762 0.151922 0.0 
1.0306 -0.0441353 0.0 
0.0663852 -0.00117287 0.0 
1.16207 0.0231611 0.0 
1.0959 0.143413 0.0 
0.998785 0.0132298 0.0 
1.01682 0.0375557 0.0 
1.11283 -0.00842302 0.0 
0.982931 0.0207423 0.0 
0.934718 0.0462902 0.0 
1.03066 -0.029 0.0 
0.973521 0.0371731 0.0 
0.941479 0.108887 0.0 
0.934396 0.0588145 0.0 
0.824449 -0.0364827 0.0 
0.963038 0.00694287 0.0 
0.789899 -0.047948 0.0 
1.00116 0.0178276 0.0 
1.03131 0.0424155 0.0 
0.954013 -0.0103572 0.0 
0.961738 -0.00118241 0.0 
0.922855 0.034079 0.0 
1.10135 0.249039 0.0 
0.972472 0.00590399 0.0 
0.942529 0.291848 0.0 
0.945608 0.0326274 0.0 
0.975544 0.226423 0.0 
0.850074 0.286034 0.0 
0.995254 0.00736077 0.0 
1.00072 0 0.0 
0.99887 0.0119145 0.0 
0.977394 0.00137675 0.0 
0.89466 0.153931 0.0 
0.13575 0.00864957 0.0 
1.01091 0.0428334 0.0 
0.980875 0.00697059 0.0 
0.999439 0.0123077 0.0 
0.915987 -0.0719848 0.0 
0.916876 0.0328776 0.0 
1.19733 -0.0337954 0.0 
0.998772 0.0121739 0.0 
0.952972 0.0756549 0.0 
0.766563 -0.0764612 0.0 
1.03355 -0.0230121 0.0 
0.936457 0.0635464 0.0 
0.995391 0.0159688 0.0 
0.944641 0.0273893 0.0 
0.991195 0.0198014 0.0 
0.0822766 0.0130916 0.0 
0.758445 -0.0665497 0.0 
1.04455 -0.00216757 0.0 
1.1564 0.0823878 0.0 
1.14894 -0.0281852 0.0 
0.997745 0.0105136 0.0 
0.98235 0.0183814 0.0 
1.00454 0.202215 0.0 
1.1147 0.157826 0.0 
0.583348 0.0955043 0.0 
0.951469 0.189129 0.0 
0.981728 0.018749 0.0 
0.298096 -0.0233308 0.0 
0.982733 0.0216526 0.0 
0.997363 0.0125348 0.0 
1.00047 0.0192959 0.0 
0.243629 -0.018517 0.0 
0.201317 -0.00950514 0.0 
0.981956 0.0298759 0.0 
0.338292 0.0580837 0.0 
1.19296 0.0912853 0.0 
1.01014 0.0423324 0.0 
0.981127 0.0321322 0.0 
0.999824 0.0192144 0.0 
0.978046 0.01105 0.0 
0.930561 0.0686074 0.0 
0.976733 0.0255522 0.0 
0.852334 0.285173 0.0 
0.485404 -0.0298702 0.0 
0.226165 -0.00863654 0.0 
0.968351 0.01334 0.0 
0.974932 0.0119592 0.0 
1.05475 0.204792 0.0 
0.305651 -0.024999 0.0 
0.940087 0.0208566 0.0 
1.03388 -0.0385645 0.0 
0.983384 0.245883 0.0 
0.999363 0.0133323 0.0 
0.922818 0.0817414 0.0 
0.972581 0.0308005 0.0 
0.930457 0.143281 0.0 
0.959488 0.156473 0.0 
1.00922 0.255307 0.0 
0.715997 -0.0268003 0.0 
0.937523 -0.0524756 0.0 
1.11772 0.0588469 0.0 
0.469097 0.0936857 0.0 
0.92664 -0.0597993 0.0 
0.111882 0.00708031 0.0 
0.899241 -0.0129788 0.0 
0.749039 0.136062 0.0 
0.915325 -0.0665618 0.0 
0.9224 -0.0562869 0.0 
0.614689 0.16524 0.0 
1.047 0.00798044 0.0 
0.94123 0.173412 0.0 
0.8799 -0.00502504 0.0 
0.928526 -0.0538682 0.0 
1.04126 -0.00475629 0.0 
0.340597 0.0415954 0.0 
1.03789 -0.0080793 0.0 
0.866348 0.00731068 0.0 
0.897605 0.21741 0.0 
1.05018 -0.000308984 0.0 
0.906897 -0.0882359 0.0 
0.921647 0.183009 0.0 
0.288395 -0.0258445 0.0 
1.13116 0.0616854 0.0 
1.03466 0.170428 0.0 
0.831306 0.380908 0.0 
1.10256 0.16506 0.0 
1.06432 0.259995 0.0 
0.957639 -0.0390842 0.0 
0.729606 -0.0919334 0.0 
0.977844 0.0331413 0.0 
0.522209 0.0618091 0.0 
0.918625 -0.0527817 0.0 
1.0501 0.0684563 0.0 
0.177402 -0.00108514 0.0 
1.04425 0.263778 0.0 
1.06051 0.0420028 0.0 
0.879313 0.105261 0.0 
1.00526 0.0214208 0.0 
0.893047 0.066891 0.0 
0.132781 0.00815243 0.0 
0.853596 0.0763701 0.0 
0.949638 0.0367344 0.0 
0.947527 0.00375174 0.0 
1.17452 -0.0389627 0.0 
0.763738 0.335434 0.0 
0.847957 0.0890952 0.0 
1.02908 0.0725392 0.0 
1.08263 -0.0953097 0.0 
0.921266 -0.0470145 0.0 
1.04009 0.272025 0.0 
0.964889 0.0167328 0.0 
0.995914 0.0399107 0.0 
0.910549 0.0769545 0.0 
0.924884 0.112605 0.0 
0.910949 0.0353293 0.0 
1.00931 0.0270118 0.0 
0.920119 0.105914 0.0 
0.917732 0.220899 0.0 
0.999284 0.0124348 0.0 
1.09256 -0.070836 0.0 
0.30521 -0.0287894 0.0 
1.05392 0.251343 0.0 
0.966496 0.203097 0.0 
0.807439 0.151251 0.0 
0.827221 0.0381434 0.0 
0.886577 0.0297579 0.0 
1.04238 0.305338 0.0 
0.999683 0.0170697 0.0 
1.12526 0.140194 0.0 
1.03345 0.226546 0.0 
0.886537 -0.0484399 0.0 
0.92316 -0.00204455 0.0 
0.858687 0.158425 0.0 
0.911218 0.0205564 0.0 
0.885451 0.0147636 0.0 
0.93253 -0.0461908 0.0 
0.934488 0.207302 0.0 
0.995858 0.0300088 0.0 
0.99968 0.014583 0.0 
0.110479 0.0104888 0.0 
0.0975875 0.012992 0.0 
0.913174 0.0276691 0.0 
0.526648 0.153707 0.0 
1.03922 -0.00656114 0.0 
0.921886 -0.0164936 0.0 
0.978095 -0.00110695 0.0 
0.90291 0.0764281 0.0 
0.84212 0.00662182 0.0 
1.08255 -0.0672282 0.0 
0.955236 0.00785067 0.0 
0.975636 0.0089689 0.0 
1.0845 0.267894 0.0 
0.224457 -0.0116034 0.0 
0.930906 0.300321 0.0 
0.973122 0.00250928 0.0 
0.989187 0.0538214 0.0 
1.0693 -0.22939 0.0 
0.969112 0.00455127 0.0 
0.961876 0.0124221 0.0 
0.997768 0.0130832 0.0 
1.03834 -0.00782171 0.0 
0.797966 0.108535 0.0 
0.904736 0.0182974 0.0 
0.990973 0.00528852 0.0 
1.02893 -0.182803 0.0 
0.995264 0.0152542 0.0 
0.935716 0.0239997 0.0 
0.810974 0.168286 0.0 
0.950208 -0.00861194 0.0 
0.998149 0.00999838 0.0 
0.938966 0.00459961 0.0 
0.188676 0.128458 0.0 
0.944066 -0.00852093 0.0 
1.06591 -0.00928194 0.0 
0.954233 0.288779 0.0 
0.0689297 0.0119909 0.0 
1.10169 0.255214 0.0 
0.988062 0.014729 0.0 
0.924068 -0.127033 0.0 
0.969005 0.00171969 0.0 
0.959794 0.00901516 0.0 
0.960043 0.00441761 0.0 
0.543924 0.134866 0.0 
0.962077 0.00173838 0.0 
0.956194 -0.0136885 0.0 
0.652299 0.184274 0.0 
1.03499 -0.0116483 0.0 
1.03478 0.04479 0.0 
0.997174 0.266059 0.0 
0.981181 0.0206579 0.0 
0.975663 0.0288411 0.0 
0.964834 0.00381289 0.0 
0.893748 0.0128212 0.0 
0.959138 -0.0179809 0.0 
0.117297 0.00193124 0.0 
0.968866 -0.000343697 0.0 
1.06164 0.0172728 0.0 
0.876551 0.167998 0.0 
0.996532 0.0118986 0.0 
1.0671 0.0281208 0.0 
1.05797 0.094902 0.0 
1.10291 -0.0709653 0.0 
1.09702 0.104892 0.0 
0.97666 -0.00307109 0.0 
0.877208 0.182962 0.0 
0.996709 0.0142787 0.0 
0.996999 0.0109811 0.0 
0.890056 -0.0413174 0.0 
0.978878 0.025612 0.0 
1.16444 -0.227111 0.0 
0.666368 0.0150002 0.0 
0.942269 0.0414265 0.0 
1.01776 0.302729 0.0 
0.908438 0.3533 0.0 
0.839446 0.132045 0.0 
1.16042 0.075693 0.0 
0.153984 0.134023 0.0 
1.01857 0.289697 0.0 
1.0667 0.26597 0.0 
1.04004 -0.00493429 0.0 
0.939146 0.0940887 0.0 
0.0486515 0.00756337 0.0 
1.17653 0.147519 0.0 
0.978003 0.0316877 0.0 
0.910368 0.121947 0.0 
1.12714 0.219932 0.0 
0.851793 0.12422 0.0 
-0.0405272 -0.0175427 0.0 
0.979086 0.0298204 0.0 
0.925429 0.0734892 0.0 
0.745674 0.140542 0.0 
0.979914 0.0265694 0.0 
0.912168 0.150043 0.0 
0.995946 0.012368 0.0 
0.903486 0.101358 0.0 
0.97941 0.0277376 0.0 
0.854311 0.0555336 0.0 
0.831378 0.0223822 0.0 
0.904648 0.164123 0.0 
0.998815 0.0112056 0.0 
0.969076 -0.00481056 0.0 
0.98037 0.0249146 0.0 
0.9992 0.0173585 0.0 
0.962945 -0.00484455 0.0 
0.961926 -0.00851308 0.0 
0.966387 -0.00429988 0.0 
0.938503 -0.041565 0.0 
0.926188 0.0579793 0.0 
0.926822 0.0879644 0.0 
1.04231 -0.00031828 0.0 
0.989943 0.0317932 0.0 
1.06601 0.0291829 0.0 
0.999301 0.0142643 0.0 
1.07938 -0.00638686 0.0 
1.00572 0.0796173 0.0 
0.949943 0.0131575 0.0 
0.97714 0.0269189 0.0 
1.05054 -0.161081 0.0 
1.10181 0.243159 0.0 
1.12501 0.231387 0.0 
0.933585 -0.0323169 0.0 
0.999191 0.0137977 0.0 
0.951432 0.0108138 0.0 
0.996452 0.0134366 0.0 
0.979666 0.00525069 0.0 
1.05697 0.0105113 0.0 
1.0494 -0.171806 0.0 
0.068054 0.00379573 0.0 