<VTKFile type="UnstructuredGrid" version="0.1" byte_order="LittleEndian">
  <UnstructuredGrid>
    <Piece NumberOfPoints="9712" NumberOfCells="19403">
      <Points>
        <DataArray type = "Float64" NumberOfComponents="3" format="ascii">
-5 -7 0.0 
15.5 -7 0.0 
15.5 7 0.0 
-5 7 0.0 
-1.6546 1.77742 0.0 
-2.13867 1.86504 0.0 
-1.83467 1.79143 0.0 
1.47969 -2.21179 0.0 
1.36003 -2.38618 0.0 
1.4346 -2.45048 0.0 
-2.04214 1.94165 0.0 
-0.20425 1.17338 0.0 
-2.07648 1.81911 0.0 
-2.00827 1.89081 0.0 
-2.05492 1.98872 0.0 
0.192693 0.536219 0.0 
0.154285 1.75648 0.0 
1.1379 -1.62057 0.0 
-2.11226 1.96977 0.0 
-1.74119 1.75327 0.0 
1.14499 -1.58184 0.0 
-1.94373 2.37229 0.0 
1.50619 -0.664239 0.0 
1.99658 -1.76705 0.0 
1.7229 -1.18344 0.0 
-1.97759 2.52091 0.0 
-0.768046 0.387136 0.0 
1.32657 -1.43969 0.0 
1.90142 0.24821 0.0 
-0.93264 1.51038 0.0 
1.09557 0.967223 0.0 
0.627111 0.757352 0.0 
-2.05707 2.31394 0.0 
1.34027 -2.45136 0.0 
-0.725097 0.397516 0.0 
-0.666094 2.30428 0.0 
-0.73829 -0.279965 0.0 
1.73336 -1.08822 0.0 
1.88466 -1.24421 0.0 
1.50539 -1.23752 0.0 
1.65978 -1.30759 0.0 
-0.0409718 0.542603 0.0 
1.6005 -1.1227 0.0 
1.78439 -0.941488 0.0 
1.86015 -1.54236 0.0 
1.49308 -1.40058 0.0 
2.34892 -1.47149 0.0 
2.13832 -1.3246 0.0 
1.73061 0.751302 0.0 
-0.580328 0.526903 0.0 
1.51013 -2.1595 0.0 
-1.65424 3.45779 0.0 
-1.51397 2.46352 0.0 
1.42773 -2.17867 0.0 
0.304353 0.497878 0.0 
2.24628 0.228293 0.0 
1.51258 -2.27933 0.0 
-1.60346 3.44299 0.0 
-1.71408 2.36227 0.0 
2.17421 0.530405 0.0 
2.42 0.316451 0.0 
-1.63642 3.31911 0.0 
2.53942 -0.995036 0.0 
0.750003 0.810439 0.0 
2.04736 0.40918 0.0 
1.19615 -1.50641 0.0 
2.13474 0.494063 0.0 
0.547924 0.306722 0.0 
-0.2059 0.361394 0.0 
2.2127 0.547693 0.0 
1.41442 -0.597105 0.0 
1.52233 -1.46252 0.0 
-1.84114 2.53924 0.0 
-5 -2.53894 0.0 
2.32127 0.371156 0.0 
-1.69186 3.33379 0.0 
-0.964779 0.566136 0.0 
-1.81311 2.48387 0.0 
-1.78557 3.38304 0.0 
1.48278 0.914136 0.0 
2.51531 -1.89689 0.0 
1.20982 -0.330514 0.0 
0.408434 0.319657 0.0 
0.95023 0.60993 0.0 
-0.752349 0.440796 0.0 
-0.998248 0.564019 0.0 
-1.73165 3.36299 0.0 
1.24353 -1.49063 0.0 
0.942095 0.817189 0.0 
-1.77816 2.47096 0.0 
2.48183 -1.95479 0.0 
1.33574 -1.77854 0.0 
0.823335 1.12085 0.0 
-0.36308 0.598468 0.0 
0.745466 0.783414 0.0 
-1.88344 2.8521 0.0 
-1.79794 3.52221 0.0 
3.0087 0.272815 0.0 
-1.81486 2.66014 0.0 
0.375911 -0.403668 0.0 
-0.68323 0.487288 0.0 
-0.34187 -0.274923 0.0 
-0.293875 -0.201368 0.0 
1.61018 -1.767 0.0 
-0.448275 -0.347267 0.0 
-1.08687 0.352015 0.0 
1.29257 -1.76345 0.0 
1.67658 -1.49551 0.0 
1.19193 0.533009 0.0 
1.21582 -1.91654 0.0 
-0.36438 -0.346225 0.0 
-0.92534 0.330346 0.0 
2.3836 0.287756 0.0 
1.68841 0.639887 0.0 
1.59001 -1.89458 0.0 
1.14818 -1.92143 0.0 
1.28996 -2.19426 0.0 
1.37603 -1.8763 0.0 
1.23834 -2.09141 0.0 
1.11702 -2.06287 0.0 
0.691829 0.463808 0.0 
1.46523 -2.03459 0.0 
-0.123547 0.424486 0.0 
-1.3311 2.12174 0.0 
1.08169 -1.90074 0.0 
1.87975 -2.15971 0.0 
1.10131 -1.78593 0.0 
1.13722 0.534683 0.0 
1.42465 -1.59031 0.0 
-1.45435 2.47344 0.0 
1.41998 -1.98207 0.0 
0.463917 1.8787 0.0 
-1.72896 2.89571 0.0 
1.12419 -1.84975 0.0 
1.59054 -1.20634 0.0 
0.46124 0.621002 0.0 
0.806438 -1.00204 0.0 
2.1804 0.349761 0.0 
2.21142 -1.6418 0.0 
1.10152 -0.274558 0.0 
2.23388 0.387302 0.0 
0.137769 0.567007 0.0 
1.88736 0.267391 0.0 
1.26821 -1.94267 0.0 
0.21033 -0.605707 0.0 
2.61094 -1.50046 0.0 
0.819837 0.743337 0.0 
-1.4303 2.07799 0.0 
1.82013 0.322126 0.0 
-1.47649 2.2099 0.0 
1.15745 -0.274223 0.0 
-1.81198 2.24994 0.0 
2.34337 -1.67775 0.0 
-1.13329 1.37877 0.0 
-0.828215 1.05292 0.0 
2.46752 -1.53452 0.0 
-1.69915 2.18529 0.0 
-0.404416 -0.286271 0.0 
-1.23501 1.31766 0.0 
2.11757 -1.50659 0.0 
-1.08535 1.28274 0.0 
2.58548 -1.70783 0.0 
0.24729 -0.572345 0.0 
-1.66963 2.25319 0.0 
1.58322 -1.62308 0.0 
-0.367923 -0.306026 0.0 
0.391521 1.44485 0.0 
1.88977 -2.46319 0.0 
1.5943 -1.53613 0.0 
-0.357143 -0.23651 0.0 
0.82621 0.80563 0.0 
-1.59261 2.31884 0.0 
-0.47244 -0.307516 0.0 
-0.40334 -0.326688 0.0 
-2.00063 2.11543 0.0 
1.55514 -1.95078 0.0 
-1.40431 2.26352 0.0 
-0.0265928 0.573714 0.0 
1.17093 1.10579 0.0 
-1.77907 2.22111 0.0 
0.682788 0.329642 0.0 
-0.54475 2.15572 0.0 
-0.288592 0.289433 0.0 
-1.43199 2.16349 0.0 
-1.45029 2.25134 0.0 
1.5535 -1.79992 0.0 
-1.06406 1.08381 0.0 
1.72954 1.44966 0.0 
0.582806 0.515814 0.0 
0.582876 -0.679913 0.0 
1.32351 -0.355916 0.0 
-0.47505 0.577092 0.0 
-0.371167 0.227715 0.0 
1.52235 -1.8529 0.0 
-0.429822 -0.244811 0.0 
-0.53237 -0.24648 0.0 
-0.393983 -0.210364 0.0 
0.652895 0.317361 0.0 
1.55812 -1.70765 0.0 
1.63021 0.325622 0.0 
0.442731 0.358729 0.0 
1.22925 -1.85192 0.0 
1.43517 -1.79082 0.0 
1.39317 -1.6984 0.0 
1.62965 0.295952 0.0 
0.905462 0.793465 0.0 
1.04036 -1.64811 0.0 
2.1131 -1.72466 0.0 
-0.743911 0.369492 0.0 
1.14427 -1.99314 0.0 
1.26033 -2.0209 0.0 
-1.70955 2.07308 0.0 
0.910023 -1.62976 0.0 
-0.313059 -0.0954838 0.0 
-1.77334 2.3988 0.0 
-0.311958 -0.24042 0.0 
2.53315 0.325608 0.0 
-0.273728 -0.226719 0.0 
-0.646401 0.379627 0.0 
1.52426 0.616074 0.0 
2.21703 -1.79499 0.0 
2.71108 0.312216 0.0 
0.759924 1.093 0.0 
-1.69271 2.12368 0.0 
0.255794 0.540969 0.0 
0.0534699 0.562158 0.0 
-1.5679 2.22408 0.0 
-1.66906 2.45165 0.0 
-1.51895 2.09449 0.0 
2.16948 0.408238 0.0 
-0.818806 0.680638 0.0 
-0.826868 0.642087 0.0 
0.519855 0.276992 0.0 
-0.716682 1.18602 0.0 
-0.649974 -0.148775 0.0 
0.457368 0.256619 0.0 
0.517407 0.248194 0.0 
0.327129 0.39802 0.0 
0.533249 -0.878832 0.0 
-0.870735 0.634904 0.0 
1.19219 1.07557 0.0 
2.35922 0.366028 0.0 
-1.66911 3.66723 0.0 
-0.857603 1.54934 0.0 
-0.379189 2.30131 0.0 
-0.941007 1.36523 0.0 
-1.58662 2.49682 0.0 
-0.545297 0.352587 0.0 
0.327944 -0.744683 0.0 
-0.312756 0.524741 0.0 
-0.107843 0.506233 0.0 
2.13378 -2.36584 0.0 
1.52689 0.686953 0.0 
-0.119983 0.327909 0.0 
1.02161 -1.53072 0.0 
1.51507 0.39695 0.0 
-0.674484 1.02605 0.0 
-0.564724 -0.148435 0.0 
0.409388 0.290913 0.0 
0.252349 0.30842 0.0 
-1.09282 1.45998 0.0 
1.45674 -1.54484 0.0 
-0.266777 0.782169 0.0 
0.91327 -0.874389 0.0 
1.01208 1.13309 0.0 
-0.897136 1.35063 0.0 
-0.846484 0.489353 0.0 
1.47563 0.663768 0.0 
-1.22282 2.05021 0.0 
0.348906 0.416714 0.0 
1.41913 0.964648 0.0 
0.933289 -0.839038 0.0 
-1.85066 1.40221 0.0 
0.142477 1.99435 0.0 
-0.717809 0.341194 0.0 
-2.21177 1.41584 0.0 
0.396571 0.350929 0.0 
1.25171 -1.60721 0.0 
0.736798 0.393502 0.0 
-0.661427 0.19031 0.0 
2.18751 -2.32769 0.0 
-1.00908 1.6747 0.0 
2.21416 -2.07269 0.0 
-0.779194 0.642011 0.0 
-1.02312 1.3939 0.0 
2.08809 -2.24876 0.0 
-5 -4.48794 0.0 
1.61792 -1.46215 0.0 
-0.974627 1.38947 0.0 
1.81166 -2.48446 0.0 
-1.03635 1.47474 0.0 
0.869004 -1.74424 0.0 
0.956579 -1.78598 0.0 
1.07495 0.540689 0.0 
-1.08005 1.37763 0.0 
0.914755 -0.803058 0.0 
0.611759 -0.305322 0.0 
1.70043 -1.41356 0.0 
0.75708 -0.631542 0.0 
1.21215 1.01979 0.0 
-0.586902 0.440014 0.0 
1.9251 -2.56336 0.0 
-1.58261 1.91091 0.0 
-0.746541 1.26087 0.0 
-1.49915 1.13657 0.0 
-1.46675 0.971536 0.0 
-1.05881 0.930935 0.0 
0.71826 0.415078 0.0 
-0.701697 0.526982 0.0 
-1.56194 2.05157 0.0 
1.15988 0.991244 0.0 
1.38676 0.949615 0.0 
-1.61697 2.02689 0.0 
1.13748 -0.357331 0.0 
-1.8456 2.04561 0.0 
0.253686 -0.756334 0.0 
-1.53603 1.86509 0.0 
-1.43465 0.924137 0.0 
-1.00273 1.27416 0.0 
-1.03063 1.5132 0.0 
-1.32483 1.94769 0.0 
-0.965552 1.61445 0.0 
-0.239859 -0.245939 0.0 
-5 3.01776 0.0 
-5 -0.248741 0.0 
0.517491 1.87079 0.0 
-1.18776 1.8875 0.0 
2.27458 0.36201 0.0 
1.9794 0.331487 0.0 
0.503086 0.510306 0.0 
1.26387 -0.370702 0.0 
1.24483 0.550197 0.0 
1.12871 0.979556 0.0 
-1.48659 1.83259 0.0 
1.0672 0.958366 0.0 
-1.16856 1.61214 0.0 
-0.218637 -0.230696 0.0 
-5 1.81431 0.0 
1.37014 1.04658 0.0 
0.0950623 0.557621 0.0 
-1.23613 1.67303 0.0 
0.953731 -0.709843 0.0 
2.07568 -1.85385 0.0 
2.10836 -1.82014 0.0 
-0.994952 1.33552 0.0 
-1.86986 1.52312 0.0 
0.515812 0.447542 0.0 
0.842446 0.992035 0.0 
-1.42353 1.8223 0.0 
2.091 0.354014 0.0 
-0.937663 0.401428 0.0 
-1.69305 1.41997 0.0 
-1.82465 1.55127 0.0 
2.15192 0.384657 0.0 
-1.17972 1.37998 0.0 
-0.718866 -0.0130647 0.0 
-0.927867 0.290435 0.0 
1.56509 0.300406 0.0 
-5 -3.04052 0.0 
9.98027 -7 0.0 
0.176009 0.694641 0.0 
0.597997 -0.559941 0.0 
-0.546583 0.4849 0.0 
0.602022 -0.657834 0.0 
2.17737 0.379672 0.0 
1.89809 0.287017 0.0 
-1.58883 1.35796 0.0 
-1.2284 1.37063 0.0 
-1.43937 1.35342 0.0 
-1.59664 1.47263 0.0 
0.577431 -0.368705 0.0 
1.5263 -1.51093 0.0 
0.479666 0.796509 0.0 
0.894995 1.01463 0.0 
2.22312 0.363016 0.0 
-0.320562 0.726481 0.0 
-1.30188 2.41386 0.0 
0.43802 0.434693 0.0 
-0.761697 0.762024 0.0 
1.45688 -1.49591 0.0 
-0.65072 0.676835 0.0 
1.6097 -1.41509 0.0 
2.25768 0.399237 0.0 
1.85518 0.299709 0.0 
2.14618 0.290757 0.0 
2.25222 0.371677 0.0 
-1.93063 2.91367 0.0 
1.52717 0.319618 0.0 
1.67964 -1.62237 0.0 
1.35962 -0.439169 0.0 
1.63007 -1.54335 0.0 
-5 -0.764504 0.0 
-1.61377 2.62271 0.0 
1.73865 -1.57725 0.0 
-0.908306 1.23669 0.0 
1.60766 0.330292 0.0 
1.82509 -1.63054 0.0 
1.90521 0.312457 0.0 
1.98719 -1.6488 0.0 
-0.528791 0.39225 0.0 
1.94978 -2.39003 0.0 
-0.472559 0.718465 0.0 
-1.28058 2.26572 0.0 
0.881581 -0.556282 0.0 
2.26369 0.42542 0.0 
0.917309 -1.69962 0.0 
0.853954 -1.60945 0.0 
1.30086 -0.404316 0.0 
1.99565 -2.46852 0.0 
1.49445 -1.47573 0.0 
1.68285 0.863315 0.0 
2.03074 -2.37549 0.0 
2.52279 -0.506167 0.0 
2.56049 -1.76899 0.0 
-1.52889 2.56597 0.0 
2.81136 -0.570221 0.0 
1.3688 -1.46095 0.0 
1.29524 -0.373946 0.0 
-0.350504 0.671928 0.0 
-0.590282 0.564035 0.0 
-0.054366 2.16706 0.0 
1.50819 1.22548 0.0 
-0.548222 0.453941 0.0 
2.19936 -2.5207 0.0 
12.2704 -7 0.0 
1.6811 -1.36761 0.0 
-0.449261 0.559535 0.0 
0.537017 -0.527614 0.0 
-0.00733391 0.553304 0.0 
0.494109 -0.356396 0.0 
-0.7939 0.0827441 0.0 
0.39888 0.467333 0.0 
-1.04288 1.34095 0.0 
0.605019 1.02824 0.0 
0.847559 0.374727 0.0 
1.00336 0.618307 0.0 
2.1955 0.399186 0.0 
0.656973 0.401158 0.0 
-0.998431 2.73564 0.0 
[...]
<PointData>
  <DataArray type = "Float64" Name="VitesseP1" NumberOfComponents="3" format="ascii">
1 0 0.0 
1.08977 0 0.0 
1.03302 0 0.0 
1 0 0.0 
0.994544 0.0162957 0.0 
0.99687 0.0115229 0.0 
0.995436 0.0140588 0.0 
1.04141 -0.00524533 0.0 
1.04317 -0.00645034 0.0 
1.04807 -0.00622622 0.0 
0.997722 0.0124707 0.0 
0.985858 0.073771 0.0 
0.996561 0.0118642 0.0 
0.996774 0.0126675 0.0 
0.998897 0.0124718 0.0 
0.990811 0.219119 0.0 
1.01944 0.055355 0.0 
1.04945 -0.0270737 0.0 
0.998819 0.0118808 0.0 
0.994964 0.0150059 0.0 
1.05456 -0.0280239 0.0 
0.998878 0.0138155 0.0 
1.1586 -0.0268272 0.0 
1.04656 0.0101433 0.0 
1.06243 -0.00335497 0.0 
0.998855 0.0133816 0.0 
0.944061 0.00911775 0.0 
1.06254 -0.0231797 0.0 
0.0706245 0.00732166 0.0 
0.988563 0.0321435 0.0 
1.14147 0.0707491 0.0 
1.10839 0.144179 0.0 
0.998861 0.0127994 0.0 
1.03322 -0.0194762 0.0 
0.940879 0.0127237 0.0 
1.00559 0.0312548 0.0 
0.936255 -0.0513722 0.0 
1.08354 -0.00312642 0.0 
1.05495 0.00714674 0.0 
1.05275 -0.0168348 0.0 
1.05543 -0.00644216 0.0 
0.92581 0.152392 0.0 
1.07401 -0.0123682 0.0 
1.12512 0.000326491 0.0 
1.06783 0.00527487 0.0 
1.06276 -0.0150721 0.0 
1.06234 0.0319277 0.0 
1.05568 0.0223155 0.0 
1.19859 0.0326619 0.0 
0.938974 0.0361859 0.0 
1.04026 -0.00520237 0.0 
1.00258 0.012718 0.0 
0.999872 0.0180648 0.0 
1.03969 -0.00679392 0.0 
1.03599 0.24427 0.0 
0.0151991 0.0203679 0.0 
1.04302 -0.00421386 0.0 
1.00281 0.0131286 0.0 
0.999117 0.0161248 0.0 
1.17243 0.00172011 0.0 
0.112596 -0.0135601 0.0 
1.0025 0.0133964 0.0 
1.0946 0.0584231 0.0 
1.12134 0.122952 0.0 
0.495031 0.0275214 0.0 
1.06038 -0.0279728 0.0 
1.06242 0.011493 0.0 
0.550583 0.134463 0.0 
0.86185 0.0859657 0.0 
1.19907 -0.00805675 0.0 
1.20197 -0.038698 0.0 
1.06642 -0.0127362 0.0 
0.99908 0.014547 0.0 
1 0 0.0 
0.313418 -0.00460777 0.0 
1.00225 0.0129642 0.0 
0.967796 0.0110475 0.0 
0.999098 0.0149134 0.0 
1.00185 0.0121264 0.0 
1.17232 0.0399165 0.0 
1.03748 0.0201404 0.0 
0.747192 -0.0409925 0.0 
0.945189 0.263537 0.0 
1.17144 0.117732 0.0 
0.945698 0.0146889 0.0 
0.969626 0.00933331 0.0 
1.00215 0.0125675 0.0 
1.06172 -0.0262153 0.0 
1.14206 0.10006 0.0 
0.999165 0.0152706 0.0 
1.04414 0.0248756 0.0 
1.04252 -0.0157204 0.0 
1.09618 0.0818552 0.0 
0.934792 0.0707375 0.0 
1.12363 0.127078 0.0 
0.999953 0.0132969 0.0 
1.00229 0.011336 0.0 
-0.00551821 -0.153445 0.0 
0.999289 0.014473 0.0 
1.18938 -0.234799 0.0 
0.943559 0.0235069 0.0 
0.917918 -0.0883683 0.0 
0.91472 -0.0744182 0.0 
1.04681 -0.00539712 0.0 
0.92354 -0.07833 0.0 
0.966865 -0.0078321 0.0 
1.04225 -0.0176395 0.0 
1.06822 -0.0042949 0.0 
1.19328 0.0862261 0.0 
1.03749 -0.0171802 0.0 
0.919189 -0.0886756 0.0 
0.954462 -0.00330255 0.0 
0.0510575 0.00619064 0.0 
1.20064 0.0399279 0.0 
1.04349 -0.00523181 0.0 
1.03595 -0.0189756 0.0 
1.0374 -0.00942367 0.0 
1.04137 -0.0126888 0.0 
1.03491 -0.0131315 0.0 
1.03212 -0.0180098 0.0 
1.16095 0.185979 0.0 
1.0385 -0.00767961 0.0 
0.876294 0.126597 0.0 
0.999087 0.0216315 0.0 
1.03491 -0.0214507 0.0 
1.04045 0.00371502 0.0 
1.0374 -0.0238063 0.0 
1.19311 0.0936413 0.0 
1.06071 -0.0156745 0.0 
1.00013 0.0187051 0.0 
1.03861 -0.00973138 0.0 
1.02919 0.0490735 0.0 
1.0008 0.0143615 0.0 
1.03684 -0.021496 0.0 
1.05744 -0.0118213 0.0 
1.08586 0.190685 0.0 
1.0672 -0.0740685 0.0 
0.143193 0.043045 0.0 
1.05401 0.0208121 0.0 
0.453855 -0.0395288 0.0 
0.388988 0.0154809 0.0 
0.976339 0.197512 0.0 
0.0766069 -0.00144815 0.0 
1.03749 -0.0150557 0.0 
1.02925 -0.160946 0.0 
1.05013 0.0468342 0.0 
1.13776 0.123023 0.0 
0.99878 0.0202088 0.0 
0.0889606 0.00360759 0.0 
0.998972 0.0192644 0.0 
0.407369 -0.0176774 0.0 
0.998782 0.0151946 0.0 
1.04581 0.0252315 0.0 
0.984963 0.0252597 0.0 
0.973129 0.0351174 0.0 
1.05554 0.0361096 0.0 
0.998606 0.0164752 0.0 
0.921954 -0.0795219 0.0 
0.983969 0.0216194 0.0 
1.06657 0.0187683 0.0 
0.98135 0.0261153 0.0 
1.03267 0.0314197 0.0 
1.03848 -0.17142 0.0 
0.998903 0.0167718 0.0 
1.0586 -0.00785332 0.0 
0.919321 -0.0859101 0.0 
1.03358 0.0715217 0.0 
1.0461 -0.00253039 0.0 
1.06699 -0.00821222 0.0 
0.91562 -0.0816603 0.0 
1.13127 0.114917 0.0 
0.99923 0.0175723 0.0 
0.926877 -0.0727379 0.0 
0.921365 -0.0826261 0.0 
0.998626 0.0132124 0.0 
1.04108 -0.00597503 0.0 
0.999483 0.0201114 0.0 
0.937877 0.152394 0.0 
1.13033 0.052179 0.0 
0.998721 0.0155614 0.0 
0.626132 0.110665 0.0 
1.00619 0.0354589 0.0 
0.862498 0.0458557 0.0 
0.998925 0.0199985 0.0 
0.999284 0.0195165 0.0 
1.04501 -0.00732659 0.0 
0.973654 0.0245615 0.0 
1.07723 -0.0444873 0.0 
1.13945 0.201479 0.0 
1.10713 -0.12963 0.0 
0.865338 -0.0313686 0.0 
0.937581 0.0525092 0.0 
0.874235 0.0167627 0.0 
1.04376 -0.00796784 0.0 
0.923266 -0.0730555 0.0 
0.932472 -0.0625442 0.0 
0.917983 -0.0741724 0.0 
0.574584 0.110885 0.0 
1.0501 -0.00808997 0.0 
0.110501 0.0123203 0.0 
1.03407 0.265912 0.0 
1.03914 -0.0180679 0.0 
1.04388 -0.0118917 0.0 
1.04864 -0.0150986 0.0 
0.0894989 0.020356 0.0 
1.14122 0.106668 0.0 
1.0437 -0.0299106 0.0 
1.04752 0.0152321 0.0 
0.940934 0.00894966 0.0 
1.03339 -0.01789 0.0 
1.03531 -0.0137756 0.0 
0.998729 0.0163557 0.0 
1.0408 -0.0350579 0.0 
0.897738 -0.0653406 0.0 
0.999085 0.0154448 0.0 
0.908817 -0.0856797 0.0 
0.187668 -0.0412981 0.0 
0.886927 -0.0838492 0.0 
0.932066 0.0164991 0.0 
1.19878 0.0505144 0.0 
1.04338 0.0183582 0.0 
0.265011 -0.05291 0.0 
1.09551 0.0893843 0.0 
0.998551 0.0165624 0.0 
1.01742 0.224155 0.0 
0.950309 0.178174 0.0 
0.998903 0.0180441 0.0 
0.999378 0.0164104 0.0 
0.99875 0.0188835 0.0 
0.514489 0.021535 0.0 
0.96732 0.0256342 0.0 
0.965011 0.0231173 0.0 
0.410475 0.135859 0.0 
0.976095 0.041664 0.0 
0.93958 -0.0443214 0.0 
0.298194 0.101208 0.0 
0.372782 0.184663 0.0 
1.06091 0.297788 0.0 
1.0677 -0.103558 0.0 
0.966795 0.0200164 0.0 
1.1378 0.052588 0.0 
0.302733 -0.0117124 0.0 
1.00054 0.0120272 0.0 
0.990176 0.034512 0.0 
1.00985 0.035948 0.0 
0.983522 0.0317969 0.0 
0.999699 0.0171576 0.0 
0.91811 0.0217623 0.0 
1.0572 -0.132023 0.0 
0.918198 0.0762934 0.0 
0.907703 0.132676 0.0 
1.04632 0.0125932 0.0 
1.19042 0.0477081 0.0 
0.828868 0.11718 0.0 
1.05491 -0.0346651 0.0 
0.533147 0.021874 0.0 
0.975454 0.0442679 0.0 
0.931912 -0.0502072 0.0 
0.697602 0.194661 0.0 
0.896953 0.339445 0.0 
0.987088 0.0269513 0.0 
1.06484 -0.0147861 0.0 
0.966575 0.0871272 0.0 
1.11155 -0.0774994 0.0 
1.11078 0.0649473 0.0 
0.982884 0.0334653 0.0 
0.95587 0.0125064 0.0 
1.19102 0.0526063 0.0 
0.999165 0.0236828 0.0 
1.07529 0.284945 0.0 
1.16567 0.0412944 0.0 
1.12192 -0.0785233 0.0 
0.99401 0.0105639 0.0 
1.01809 0.0472531 0.0 
0.936924 0.0078293 0.0 
0.997194 0.00883742 0.0 
1.01545 0.285164 0.0 
1.05457 -0.0227844 0.0 
0.993091 0.15225 0.0 
0.924546 -0.0063213 0.0 
1.03721 0.0299159 0.0 
0.992699 0.0294862 0.0 
1.03699 0.0152243 0.0 
0.9624 0.0263217 0.0 
0.984779 0.0289679 0.0 
1.03695 0.00678983 0.0 
1 0 0.0 
1.06747 -0.00761974 0.0 
0.98449 0.0306367 0.0 
1.04423 -0.00203422 0.0 
0.987375 0.0287626 0.0 
1.03151 -0.0321627 0.0 
1.03358 -0.0283881 0.0 
1.19066 0.102693 0.0 
0.98458 0.0269689 0.0 
1.12751 -0.0831235 0.0 
0.910748 -0.146996 0.0 
1.06568 -0.00348886 0.0 
1.12572 -0.115538 0.0 
1.14618 0.0551774 0.0 
0.930762 0.0278014 0.0 
1.03658 0.000883979 0.0 
0.995894 0.0177776 0.0 
0.979401 0.0400336 0.0 
0.983879 0.0116081 0.0 
0.995432 0.0108431 0.0 
0.989907 0.0218547 0.0 
1.08468 0.16965 0.0 
0.948114 0.0250687 0.0 
0.998713 0.0182451 0.0 
1.14464 0.0624745 0.0 
1.16431 0.0448143 0.0 
0.99845 0.017475 0.0 
0.92656 -0.0579423 0.0 
0.999087 0.0147084 0.0 
1.04143 -0.128769 0.0 
0.994981 0.018384 0.0 
1.00018 0.0115031 0.0 
0.980463 0.0290341 0.0 
0.988642 0.0290126 0.0 
0.996535 0.0220399 0.0 
0.991751 0.0308907 0.0 
0.881238 -0.105647 0.0 
1 0 0.0 
1 0 0.0 
1.03108 0.0485167 0.0 
0.995186 0.0247371 0.0 
0.240413 0.0132196 0.0 
0.0774739 0.0260188 0.0 
1.11507 0.218571 0.0 
0.954915 -0.046222 0.0 
1.19805 0.0800584 0.0 
1.14314 0.0664705 0.0 
0.994405 0.0191059 0.0 
1.13989 0.0743355 0.0 
0.991699 0.0252734 0.0 
0.947315 -0.163953 0.0 
1 0 0.0 
1.15672 0.0385757 0.0 
0.960544 0.190813 0.0 
0.992667 0.023762 0.0 
1.14181 -0.0861035 0.0 
1.0435 0.0124208 0.0 
1.04388 0.0140436 0.0 
0.982598 0.0297132 0.0 
0.995298 0.0118188 0.0 
1.1259 0.233683 0.0 
1.11721 0.0932817 0.0 
0.994151 0.0201778 0.0 
0.147317 0.0409601 0.0 
0.958144 0.0015248 0.0 
0.992013 0.0126411 0.0 
0.995226 0.0125425 0.0 
0.333218 0.0330498 0.0 
0.985322 0.0238533 0.0 
0.948046 -0.0291492 0.0 
0.953252 -0.00653821 0.0 
0.0939157 -0.0107732 0.0 
1 0 0.0 
1.07034 0 0.0 
1.0067 0.167275 0.0 
1.11815 -0.146822 0.0 
0.931495 0.0363269 0.0 
1.11098 -0.13093 0.0 
0.310021 0.0317076 0.0 
0.0917782 0.00265711 0.0 
0.989524 0.0133861 0.0 
0.985464 0.0223494 0.0 
0.987291 0.0165678 0.0 
0.991568 0.0148317 0.0 
1.10578 -0.173958 0.0 
1.06666 -0.0118637 0.0 
1.07848 0.148734 0.0 
1.12023 0.0863078 0.0 
0.228619 0.0292784 0.0 
0.956124 0.0799175 0.0 
1.00065 0.020834 0.0 
1.10901 0.258409 0.0 
0.971964 0.0331159 0.0 
1.06586 -0.0156773 0.0 
0.958912 0.0384361 0.0 
1.06523 -0.00857713 0.0 
0.484037 0.00362502 0.0 
0.0934451 0.00820208 0.0 
0.0602739 0.0368663 0.0 
0.293823 0.0182059 0.0 
0.999819 0.0127257 0.0 
0.082537 0.00176332 0.0 
1.05929 -0.00344481 0.0 
1.1566 -0.0436197 0.0 
1.06699 -0.00638552 0.0 
1 0 0.0 
0.999835 0.0164441 0.0 
1.06508 -0.000744958 0.0 
0.978815 0.0326498 0.0 
0.096987 0.00471427 0.0 
1.05899 0.00336318 0.0 
0.0924339 0.00341274 0.0 
1.05627 0.0106913 0.0 
0.919797 0.0284684 0.0 
1.04131 -0.000680097 0.0 
0.956879 0.0589471 0.0 
0.999978 0.0218493 0.0 
1.19427 -0.111117 0.0 
0.67471 -0.00721442 0.0 
1.03561 -0.0322128 0.0 
1.04114 -0.0375741 0.0 
1.06489 -0.0455382 0.0 
1.05395 0.00907067 0.0 
1.06634 -0.0140422 0.0 
1.18649 0.0254007 0.0 
1.04105 0.0124969 0.0 
1.24217 0.0779976 0.0 
1.03447 0.0266123 0.0 
1.00004 0.0175165 0.0 
1.18139 0.104341 0.0 
1.06383 -0.0207623 0.0 
0.967732 -0.0462988 0.0 
0.947188 0.0748229 0.0 
0.943764 0.0378667 0.0 
1.01463 0.0432283 0.0 
1.13723 0.00283538 0.0 
0.928393 0.0331573 0.0 
1.0068 -0.00567429 0.0 
1.06723 0 0.0 
1.06189 -0.00479236 0.0 
0.933283 0.0549929 0.0 
1.13791 -0.164349 0.0 
0.934631 0.161347 0.0 
1.10044 -0.195293 0.0 
0.952196 -0.0198539 0.0 
1.08583 0.252272 0.0 
0.983078 0.0279996 0.0 
1.08664 0.106706 0.0 
0.779425 0.101645 0.0 
1.17404 0.108974 0.0 
0.457765 0.0198372 0.0 
1.07137 0.1876 0.0 
1.00428 0.0219106 0.0 
1.05598 0.0134484 0.0 
1.04245 0.00693954 0.0 
1.04734 -0.00246708 0.0 
1.0458 -0.00139802 0.0 
0.0665459 0.0502558 0.0 
1.04134 0.000482584 0.0 
-0.0613752 0.0206178 0.0 
1.07495 -0.064075 0.0 
1.00416 0.0359053 0.0 
1.04413 0.00755734 0.0 
1 0 0.0 
0.983068 0.0268208 0.0 
1.19141 0.0986258 0.0 
0.796065 -0.0611378 0.0 
0.999685 0.0158714 0.0 
0.991657 0.0397761 0.0 
1.04966 0.00837788 0.0 
1.05443 0.00363974 0.0 
0.938713 0.190026 0.0 
0.772591 0.130801 0.0 
1.00447 0.0188872 0.0 
1.13069 0.123141 0.0 
0.998325 0.244459 0.0 
0.999196 0.0124096 0.0 
0.985868 0.0296883 0.0 
1.05098 -0.000392382 0.0 
0.937028 0.125574 0.0 
0.153849 -0.00974161 0.0 
1.04998 0.00169999 0.0 
0.171022 0.0986411 0.0 
1.05019 -0.00245012 0.0 
1.02421 -0.0155326 0.0 
1.0162 0.0486613 0.0 
1.13432 -0.0707637 0.0 
1.04674 0.00066648 0.0 
0.95677 -0.00592622 0.0 
0.323502 0.0127329 0.0 
1.06263 -0.0240934 0.0 
0.94625 -0.00109826 0.0 
0.999906 0.015556 0.0 
1.06009 -0.0289489 0.0 
0.941242 0.0664657 0.0 
1.19684 -0.0463438 0.0 
0.25337 -0.0342272 0.0 
0.61531 -0.01458 0.0 
0.940733 -0.00430125 0.0 
0.96305 0.273333 0.0 
0.248406 0.0478299 0.0 
0.994904 0.316793 0.0 
0.932321 0.00189854 0.0 
1.0777 -0.044082 0.0 
0.664494 0.0242929 0.0 
0.353963 0.1162 0.0 
1.10204 0.0727209 0.0 
0.998756 0.0125274 0.0 
0.505234 0.0277986 0.0 
0.140969 0.0133509 0.0 
0.913903 -0.0431869 0.0 
0.776676 -0.0337207 0.0 
1.03074 0.043143 0.0 
0.998802 0.0121213 0.0 
1.02504 -0.0987583 0.0 
1.1111 -0.0350509 0.0 
1.17323 0.0303334 0.0 
0.0936304 0.00427948 0.0 
0.935754 -0.0575885 0.0 
1.03561 0.0405647 0.0 
1.0663 -0.00972187 0.0 
0.937692 -0.00871764 0.0 
0.0919374 0.0380938 0.0 
0.998839 0.0130662 0.0 
1.17162 0.0340804 0.0 
1.05861 -0.0281809 0.0 
0.9625 0.217163 0.0 
1.05294 0.011981 0.0 
1.06782 -0.00152512 0.0 
1.06786 0.00318546 0.0 
0.954134 0.0381843 0.0 
1.06054 -0.0259915 0.0 
0.998978 0.0142729 0.0 
0.951916 0.00744889 0.0 
1.13496 -0.0340053 0.0 
1.05317 0.0182749 0.0 
0.989257 0.00770177 0.0 
0.953086 0.0157706 0.0 
0.999023 0.0144616 0.0 
1.05679 0.0033785 0.0 
1.04086 -0.00634245 0.0 
1.06042 -0.0232711 0.0 
0.990431 0.00935892 0.0 
1.021 0.0434657 0.0 
0.998886 0.0137165 0.0 
1.04487 -0.0277441 0.0 
1.06476 0.0171889 0.0 
0.0474918 0.0346229 0.0 
0.0523563 0.0103225 0.0 
1.06823 0.013187 0.0 
0.904692 -0.0562457 0.0 
0.88431 -0.0485289 0.0 
0.871451 0.121145 0.0 
0.999507 0.0143917 0.0 
0.998899 0.0143818 0.0 
0.962593 -0.0129382 0.0 
0.964759 -0.00165115 0.0 
1.03413 0.0229725 0.0 
0.962403 0.236001 0.0 
1.06602 0.153938 0.0 
1.02916 -0.0453026 0.0 
0.0699625 0.0192888 0.0 
1.16182 0.0291194 0.0 
1.09933 0.150043 0.0 
0.998742 0.0138952 0.0 
1.01519 0.0337209 0.0 
1.11507 -0.00571283 0.0 
0.982648 0.0214796 0.0 
0.933982 0.0470851 0.0 
1.03059 -0.0301855 0.0 
0.97307 0.0380484 0.0 
0.940444 0.109956 0.0 
0.933605 0.0596742 0.0 
0.833537 -0.0570654 0.0 
0.962619 0.00750767 0.0 
0.784208 -0.0486993 0.0 
1.00116 0.0186991 0.0 
1.03118 0.0450567 0.0 
0.953534 -0.0099448 0.0 
0.961319 -0.000691639 0.0 
0.922105 0.0347731 0.0 
1.09823 0.250613 0.0 
0.972136 0.00646511 0.0 
0.93903 0.292536 0.0 
0.944984 0.0333694 0.0 
0.973861 0.227598 0.0 
0.846727 0.286497 0.0 
0.995154 0.00789006 0.0 
1.00116 0 0.0 
0.998831 0.0125332 0.0 
0.977113 0.00189172 0.0 
0.886712 0.154719 0.0 
0.127313 0.00909799 0.0 
1.01081 0.0446257 0.0 
0.98062 0.00754605 0.0 
0.999413 0.0129387 0.0 
0.915066 -0.0717132 0.0 
0.9161 0.0335525 0.0 
1.19331 -0.0346495 0.0 
0.998732 0.0128035 0.0 
0.932453 0.069452 0.0 
0.784278 -0.0940531 0.0 
1.03323 -0.0244343 0.0 
0.935654 0.0644372 0.0 
0.995255 0.0167047 0.0 
0.944029 0.0280915 0.0 
0.990983 0.020611 0.0 
0.0891832 0.0122339 0.0 
0.777774 -0.0868216 0.0 
1.04274 -0.00456524 0.0 
1.15552 0.0801286 0.0 
1.15768 -0.0436359 0.0 
0.997694 0.0110954 0.0 
0.982022 0.0191301 0.0 
0.999251 0.203374 0.0 
1.11275 0.160137 0.0 
0.574986 0.0956464 0.0 
0.950002 0.19026 0.0 
0.98139 0.0194995 0.0 
0.280844 -0.0507009 0.0 
0.982386 0.0224634 0.0 
0.99728 0.0131712 0.0 
1.00044 0.0201848 0.0 
0.224287 -0.0433676 0.0 
0.17307 -0.0333476 0.0 
0.981542 0.0308277 0.0 
0.331976 0.0580196 0.0 
1.19045 0.0945224 0.0 
1.01004 0.0440741 0.0 
0.980685 0.0331141 0.0 
0.999778 0.0200866 0.0 
0.977754 0.0116697 0.0 
0.929711 0.0694954 0.0 
0.976369 0.0263266 0.0 
0.850713 0.285798 0.0 
0.517787 -0.0487626 0.0 
0.196957 -0.0368439 0.0 
0.967963 0.0139714 0.0 
0.974608 0.0125854 0.0 
1.05289 0.206459 0.0 
0.3047 -0.0494973 0.0 
0.939466 0.0215026 0.0 
1.03376 -0.0395255 0.0 
0.981576 0.247037 0.0 
0.99935 0.0140207 0.0 
0.921885 0.0826449 0.0 
0.972109 0.0316967 0.0 
0.929233 0.14433 0.0 
0.951778 0.157468 0.0 
1.00729 0.256549 0.0 
0.723821 -0.0398471 0.0 
0.936793 -0.0522988 0.0 
1.11467 0.0573162 0.0 
0.463158 0.0937757 0.0 
0.925824 -0.059593 0.0 
0.0696998 0.013272 0.0 
0.898471 -0.0125209 0.0 
0.740796 0.136347 0.0 
0.914432 -0.0662978 0.0 
0.921586 -0.0560426 0.0 
0.608236 0.165217 0.0 
1.04644 0.00555105 0.0 
0.939852 0.174509 0.0 
0.879043 -0.00452769 0.0 
0.927745 -0.0536457 0.0 
1.03975 -0.00701224 0.0 
0.334867 0.0414218 0.0 
1.03674 -0.0101487 0.0 
0.865417 0.00784707 0.0 
0.892188 0.217894 0.0 
1.04735 -0.00264056 0.0 
0.905875 -0.0879746 0.0 
0.914924 0.183729 0.0 
0.278257 -0.0526642 0.0 
1.12813 0.0601437 0.0 
1.02847 0.171866 0.0 
0.828354 0.380981 0.0 
1.10065 0.167242 0.0 
1.06106 0.2614 0.0 
0.962973 -0.0615469 0.0 
0.744243 -0.104808 0.0 
0.977453 0.0339953 0.0 
0.511162 0.0619129 0.0 
0.917824 -0.0524988 0.0 
1.04492 0.0634579 0.0 
0.158046 0.0250243 0.0 
1.0422 0.265139 0.0 
1.05776 0.038604 0.0 
0.878216 0.106057 0.0 
1.00537 0.0224351 0.0 
0.892097 0.0676444 0.0 
0.101568 0.039888 0.0 
0.852542 0.0770515 0.0 
0.949024 0.0375182 0.0 
0.94699 0.00427763 0.0 
1.17273 -0.0400209 0.0 
0.761515 0.33587 0.0 
0.846868 0.0897869 0.0 
1.02815 0.0747665 0.0 
1.08078 -0.0962778 0.0 
0.920503 -0.0467153 0.0 
1.03703 0.273236 0.0 
0.96446 0.0173917 0.0 
0.995595 0.04121 0.0 
0.909608 0.077795 0.0 
0.923811 0.113594 0.0 
0.910141 0.0360047 0.0 
1.00944 0.0282263 0.0 
0.91907 0.106868 0.0 
0.916188 0.221831 0.0 
0.999274 0.0130889 0.0 
1.0907 -0.0719324 0.0 
0.294543 -0.0564117 0.0 
1.05028 0.252702 0.0 
0.964935 0.204282 0.0 
0.806148 0.151892 0.0 
0.826201 0.0387224 0.0 
0.885686 0.0303743 0.0 
1.03998 0.306436 0.0 
0.99965 0.0178801 0.0 
1.12333 0.142713 0.0 
1.03157 0.228004 0.0 
0.885709 -0.0480406 0.0 
0.922459 -0.00156044 0.0 
0.85741 0.159194 0.0 
0.910439 0.021161 0.0 
0.884567 0.0153262 0.0 
0.93181 -0.0459457 0.0 
0.932976 0.208326 0.0 
0.995632 0.0311142 0.0 
0.999669 0.0153223 0.0 
0.0716446 0.0367588 0.0 
0.0650021 0.0424185 0.0 
0.91239 0.0283113 0.0 
0.521793 0.153441 0.0 
1.03793 -0.0087098 0.0 
0.921223 -0.0160759 0.0 
0.977822 -0.000617849 0.0 
0.901951 0.0772391 0.0 
0.841172 0.00718078 0.0 
1.08068 -0.0683314 0.0 
0.954753 0.00841646 0.0 
0.975324 0.00956408 0.0 
1.0822 0.269362 0.0 
0.199909 -0.0350414 0.0 
0.929038 0.3011 0.0 
0.9728 0.00303626 0.0 
0.988575 0.0552093 0.0 
1.06746 -0.229561 0.0 
0.96875 0.00509761 0.0 
0.961434 0.013036 0.0 
0.997693 0.0137373 0.0 
1.03721 -0.0098765 0.0 
0.787946 0.109228 0.0 
0.90393 0.018885 0.0 
0.990826 0.00583969 0.0 
1.02689 -0.183091 0.0 
0.995131 0.0159694 0.0 
0.935061 0.0246591 0.0 
0.803857 0.168574 0.0 
0.949698 -0.00818464 0.0 
0.998107 0.0105592 0.0 
0.938365 0.00512743 0.0 
0.187054 0.128336 0.0 
0.943508 -0.00809126 0.0 
1.06411 -0.0110212 0.0 
0.952366 0.289695 0.0 
0.0617563 0.0393631 0.0 
1.09931 0.256813 0.0 
0.987856 0.0154025 0.0 
0.913145 -0.129284 0.0 
0.968646 0.0022391 0.0 
0.959344 0.00959543 0.0 
0.959605 0.00495733 0.0 
0.540011 0.134524 0.0 
0.961659 0.00225523 0.0 
0.955734 -0.0133046 0.0 
0.646583 0.184221 0.0 
1.034 -0.0136301 0.0 
1.03438 0.0476163 0.0 
0.993466 0.266986 0.0 
0.980825 0.0214405 0.0 
0.975177 0.02973 0.0 
0.964436 0.0043499 0.0 
0.892897 0.0133794 0.0 
0.958703 -0.0176342 0.0 
0.109441 0.000265332 0.0 
0.968509 0.000156104 0.0 
1.05859 0.0151 0.0 
0.875242 0.168826 0.0 
0.996452 0.0125215 0.0 
1.06499 0.0253311 0.0 
1.05709 0.0973115 0.0 
1.10103 -0.0720714 0.0 
1.09572 0.107486 0.0 
0.976375 -0.00260122 0.0 
0.875845 0.183789 0.0 
0.996603 0.0149683 0.0 
0.996926 0.0115737 0.0 
0.889259 -0.0409077 0.0 
0.978461 0.026467 0.0 
1.16243 -0.227452 0.0 
0.61945 0.016902 0.0 
0.94159 0.0422167 0.0 
1.01554 0.303783 0.0 
0.90564 0.353815 0.0 
0.838241 0.132748 0.0 
1.15844 0.0792525 0.0 
0.15302 0.133815 0.0 
1.01564 0.290748 0.0 
1.06356 0.267286 0.0 
1.03876 -0.00707223 0.0 
0.938191 0.0951087 0.0 
0.0485564 0.00693659 0.0 
1.17418 0.150226 0.0 
0.977532 0.0326319 0.0 
0.909235 0.122883 0.0 
1.1239 0.221757 0.0 
0.850617 0.124954 0.0 
-0.0459499 -0.018975 0.0 
0.978648 0.0307456 0.0 
0.92454 0.0743755 0.0 
0.737821 0.140816 0.0 
0.979506 0.0274483 0.0 
0.910915 0.151008 0.0 
0.995844 0.0130005 0.0 
0.902433 0.102234 0.0 
0.97899 0.0286317 0.0 
0.853295 0.0561767 0.0 
0.830399 0.0229521 0.0 
0.903342 0.165056 0.0 
0.99878 0.0118003 0.0 
0.968722 -0.0043517 0.0 
0.979979 0.0257687 0.0 
0.99915 0.0181651 0.0 
0.962539 -0.00438588 0.0 
0.961512 -0.00808608 0.0 
0.966011 -0.00383685 0.0 
0.937836 -0.0413202 0.0 
0.925368 0.0588029 0.0 
0.925871 0.0889059 0.0 
1.0408 -0.00255067 0.0 
0.989618 0.032849 0.0 
1.06353 0.0264822 0.0 
0.999276 0.0149843 0.0 
1.07709 -0.00789019 0.0 
1.00476 0.0813994 0.0 
0.949409 0.0137609 0.0 
0.976685 0.0277843 0.0 
1.04855 -0.161534 0.0 
1.09835 0.244751 0.0 
1.12267 0.233233 0.0 
0.932948 -0.0319782 0.0 
0.999166 0.0145001 0.0 
0.950914 0.0114 0.0 
0.996346 0.0141002 0.0 
0.979402 0.00580669 0.0 
1.05391 0.00858123 0.0 
1.04733 -0.172197 0.0 
0.0875434 0.00697613 0.0 
0.659448 0.136949 0.0 