<VTKFile type="UnstructuredGrid" version="0.1" byte_order="LittleEndian">
  <UnstructuredGrid>
    <Piece NumberOfPoints="9712" NumberOfCells="19403">
      <Points>
        <DataArray type = "Float64" NumberOfComponents="3" format="ascii">
-5 -7 0.0 
15.5 -7 0.0 
15.5 7 0.0 
-5 7 0.0 
-1.6546 1.77742 0.0 
-2.13867 1.86504 0.0 
-1.83467 1.79143 0.0 
1.47969 -2.21179 0.0 
1.36003 -2.38618 0.0 
1.4346 -2.45048 0.0 
-2.04214 1.94165 0.0 
-0.20425 1.17338 0.0 
-2.07648 1.81911 0.0 
-2.00827 1.89081 0.0 
-2.05492 1.98872 0.0 
0.192693 0.536219 0.0 
0.154285 1.75648 0.0 
1.1379 -1.62057 0.0 
-2.11226 1.96977 0.0 
-1.74119 1.75327 0.0 
1.14499 -1.58184 0.0 
-1.94373 2.37229 0.0 
1.50619 -0.664239 0.0 
1.99658 -1.76705 0.0 
1.7229 -1.18344 0.0 
-1.97759 2.52091 0.0 
-0.768046 0.387136 0.0 
1.32657 -1.43969 0.0 
1.90142 0.24821 0.0 
-0.93264 1.51038 0.0 
1.09557 0.967223 0.0 
0.627111 0.757352 0.0 
-2.05707 2.31394 0.0 
1.34027 -2.45136 0.0 
-0.725097 0.397516 0.0 
-0.666094 2.30428 0.0 
-0.73829 -0.279965 0.0 
1.73336 -1.08822 0.0 
1.88466 -1.24421 0.0 
1.50539 -1.23752 0.0 
1.65978 -1.30759 0.0 
-0.0409718 0.542603 0.0 
1.6005 -1.1227 0.0 
1.78439 -0.941488 0.0 
1.86015 -1.54236 0.0 
1.49308 -1.40058 0.0 
2.34892 -1.47149 0.0 
2.13832 -1.3246 0.0 
1.73061 0.751302 0.0 
-0.580328 0.526903 0.0 
1.51013 -2.1595 0.0 
-1.65424 3.45779 0.0 
-1.51397 2.46352 0.0 
1.42773 -2.17867 0.0 
0.304353 0.497878 0.0 
2.24628 0.228293 0.0 
1.51258 -2.27933 0.0 
-1.60346 3.44299 0.0 
-1.71408 2.36227 0.0 
2.17421 0.530405 0.0 
2.42 0.316451 0.0 
-1.63642 3.31911 0.0 
2.53942 -0.995036 0.0 
0.750003 0.810439 0.0 
2.04736 0.40918 0.0 
1.19615 -1.50641 0.0 
2.13474 0.494063 0.0 
0.547924 0.306722 0.0 
-0.2059 0.361394 0.0 
2.2127 0.547693 0.0 
1.41442 -0.597105 0.0 
1.52233 -1.46252 0.0 
-1.84114 2.53924 0.0 
-5 -2.53894 0.0 
2.32127 0.371156 0.0 
-1.69186 3.33379 0.0 
-0.964779 0.566136 0.0 
-1.81311 2.48387 0.0 
-1.78557 3.38304 0.0 
1.48278 0.914136 0.0 
2.51531 -1.89689 0.0 
1.20982 -0.330514 0.0 
0.408434 0.319657 0.0 
0.95023 0.60993 0.0 
-0.752349 0.440796 0.0 
-0.998248 0.564019 0.0 
-1.73165 3.36299 0.0 
1.24353 -1.49063 0.0 
0.942095 0.817189 0.0 
-1.77816 2.47096 0.0 
2.48183 -1.95479 0.0 
1.33574 -1.77854 0.0 
0.823335 1.12085 0.0 
-0.36308 0.598468 0.0 
0.745466 0.783414 0.0 
-1.88344 2.8521 0.0 
-1.79794 3.52221 0.0 
3.0087 0.272815 0.0 
-1.81486 2.66014 0.0 
0.375911 -0.403668 0.0 
-0.68323 0.487288 0.0 
-0.34187 -0.274923 0.0 
-0.293875 -0.201368 0.0 
1.61018 -1.767 0.0 
-0.448275 -0.347267 0.0 
-1.08687 0.352015 0.0 
1.29257 -1.76345 0.0 
1.67658 -1.49551 0.0 
1.19193 0.533009 0.0 
1.21582 -1.91654 0.0 
-0.36438 -0.346225 0.0 
-0.92534 0.330346 0.0 
2.3836 0.287756 0.0 
1.68841 0.639887 0.0 
1.59001 -1.89458 0.0 
1.14818 -1.92143 0.0 
1.28996 -2.19426 0.0 
1.37603 -1.8763 0.0 
1.23834 -2.09141 0.0 
1.11702 -2.06287 0.0 
0.691829 0.463808 0.0 
1.46523 -2.03459 0.0 
-0.123547 0.424486 0.0 
-1.3311 2.12174 0.0 
1.08169 -1.90074 0.0 
1.87975 -2.15971 0.0 
1.10131 -1.78593 0.0 
1.13722 0.534683 0.0 
1.42465 -1.59031 0.0 
-1.45435 2.47344 0.0 
1.41998 -1.98207 0.0 
0.463917 1.8787 0.0 
-1.72896 2.89571 0.0 
1.12419 -1.84975 0.0 
1.59054 -1.20634 0.0 
0.46124 0.621002 0.0 
0.806438 -1.00204 0.0 
2.1804 0.349761 0.0 
2.21142 -1.6418 0.0 
1.10152 -0.274558 0.0 
2.23388 0.387302 0.0 
0.137769 0.567007 0.0 
1.88736 0.267391 0.0 
1.26821 -1.94267 0.0 
0.21033 -0.605707 0.0 
2.61094 -1.50046 0.0 
0.819837 0.743337 0.0 
-1.4303 2.07799 0.0 
1.82013 0.322126 0.0 
-1.47649 2.2099 0.0 
1.15745 -0.274223 0.0 
-1.81198 2.24994 0.0 
2.34337 -1.67775 0.0 
-1.13329 1.37877 0.0 
-0.828215 1.05292 0.0 
2.46752 -1.53452 0.0 
-1.69915 2.18529 0.0 
-0.404416 -0.286271 0.0 
-1.23501 1.31766 0.0 
2.11757 -1.50659 0.0 
-1.08535 1.28274 0.0 
2.58548 -1.70783 0.0 
0.24729 -0.572345 0.0 
-1.66963 2.25319 0.0 
1.58322 -1.62308 0.0 
-0.367923 -0.306026 0.0 
0.391521 1.44485 0.0 
1.88977 -2.46319 0.0 
1.5943 -1.53613 0.0 
-0.357143 -0.23651 0.0 
0.82621 0.80563 0.0 
-1.59261 2.31884 0.0 
-0.47244 -0.307516 0.0 
-0.40334 -0.326688 0.0 
-2.00063 2.11543 0.0 
1.55514 -1.95078 0.0 
-1.40431 2.26352 0.0 
-0.0265928 0.573714 0.0 
1.17093 1.10579 0.0 
-1.77907 2.22111 0.0 
0.682788 0.329642 0.0 
-0.54475 2.15572 0.0 
-0.288592 0.289433 0.0 
-1.43199 2.16349 0.0 
-1.45029 2.25134 0.0 
1.5535 -1.79992 0.0 
-1.06406 1.08381 0.0 
1.72954 1.44966 0.0 
0.582806 0.515814 0.0 
0.582876 -0.679913 0.0 
1.32351 -0.355916 0.0 
-0.47505 0.577092 0.0 
-0.371167 0.227715 0.0 
1.52235 -1.8529 0.0 
-0.429822 -0.244811 0.0 
-0.53237 -0.24648 0.0 
-0.393983 -0.210364 0.0 
0.652895 0.317361 0.0 
1.55812 -1.70765 0.0 
1.63021 0.325622 0.0 
0.442731 0.358729 0.0 
1.22925 -1.85192 0.0 
1.43517 -1.79082 0.0 
1.39317 -1.6984 0.0 
1.62965 0.295952 0.0 
0.905462 0.793465 0.0 
1.04036 -1.64811 0.0 
2.1131 -1.72466 0.0 
-0.743911 0.369492 0.0 
1.14427 -1.99314 0.0 
1.26033 -2.0209 0.0 
-1.70955 2.07308 0.0 
0.910023 -1.62976 0.0 
-0.313059 -0.0954838 0.0 
-1.77334 2.3988 0.0 
-0.311958 -0.24042 0.0 
2.53315 0.325608 0.0 
-0.273728 -0.226719 0.0 
-0.646401 0.379627 0.0 
1.52426 0.616074 0.0 
2.21703 -1.79499 0.0 
2.71108 0.312216 0.0 
0.759924 1.093 0.0 
-1.69271 2.12368 0.0 
0.255794 0.540969 0.0 
0.0534699 0.562158 0.0 
-1.5679 2.22408 0.0 
-1.66906 2.45165 0.0 
-1.51895 2.09449 0.0 
2.16948 0.408238 0.0 
-0.818806 0.680638 0.0 
-0.826868 0.642087 0.0 
0.519855 0.276992 0.0 
-0.716682 1.18602 0.0 
-0.649974 -0.148775 0.0 
0.457368 0.256619 0.0 
0.517407 0.248194 0.0 
0.327129 0.39802 0.0 
0.533249 -0.878832 0.0 
-0.870735 0.634904 0.0 
1.19219 1.07557 0.0 
2.35922 0.366028 0.0 
-1.66911 3.66723 0.0 
-0.857603 1.54934 0.0 
-0.379189 2.30131 0.0 
-0.941007 1.36523 0.0 
-1.58662 2.49682 0.0 
-0.545297 0.352587 0.0 
0.327944 -0.744683 0.0 
-0.312756 0.524741 0.0 
-0.107843 0.506233 0.0 
2.13378 -2.36584 0.0 
1.52689 0.686953 0.0 
-0.119983 0.327909 0.0 
1.02161 -1.53072 0.0 
1.51507 0.39695 0.0 
-0.674484 1.02605 0.0 
-0.564724 -0.148435 0.0 
0.409388 0.290913 0.0 
0.252349 0.30842 0.0 
-1.09282 1.45998 0.0 
1.45674 -1.54484 0.0 
-0.266777 0.782169 0.0 
0.91327 -0.874389 0.0 
1.01208 1.13309 0.0 
-0.897136 1.35063 0.0 
-0.846484 0.489353 0.0 
1.47563 0.663768 0.0 
-1.22282 2.05021 0.0 
0.348906 0.416714 0.0 
1.41913 0.964648 0.0 
0.933289 -0.839038 0.0 
-1.85066 1.40221 0.0 
0.142477 1.99435 0.0 
-0.717809 0.341194 0.0 
-2.21177 1.41584 0.0 
0.396571 0.350929 0.0 
1.25171 -1.60721 0.0 
0.736798 0.393502 0.0 
-0.661427 0.19031 0.0 
2.18751 -2.32769 0.0 
-1.00908 1.6747 0.0 
2.21416 -2.07269 0.0 
-0.779194 0.642011 0.0 
-1.02312 1.3939 0.0 
2.08809 -2.24876 0.0 
-5 -4.48794 0.0 
1.61792 -1.46215 0.0 
-0.974627 1.38947 0.0 
1.81166 -2.48446 0.0 
-1.03635 1.47474 0.0 
0.869004 -1.74424 0.0 
0.956579 -1.78598 0.0 
1.07495 0.540689 0.0 
-1.08005 1.37763 0.0 
0.914755 -0.803058 0.0 
0.611759 -0.305322 0.0 
1.70043 -1.41356 0.0 
0.75708 -0.631542 0.0 
1.21215 1.01979 0.0 
-0.586902 0.440014 0.0 
1.9251 -2.56336 0.0 
-1.58261 1.91091 0.0 
-0.746541 1.26087 0.0 
-1.49915 1.13657 0.0 
-1.46675 0.971536 0.0 
-1.05881 0.930935 0.0 
0.71826 0.415078 0.0 
-0.701697 0.526982 0.0 
-1.56194 2.05157 0.0 
1.15988 0.991244 0.0 
1.38676 0.949615 0.0 
-1.61697 2.02689 0.0 
1.13748 -0.357331 0.0 
-1.8456 2.04561 0.0 
0.253686 -0.756334 0.0 
-1.53603 1.86509 0.0 
-1.43465 0.924137 0.0 
-1.00273 1.27416 0.0 
-1.03063 1.5132 0.0 
-1.32483 1.94769 0.0 
-0.965552 1.61445 0.0 
-0.239859 -0.245939 0.0 
-5 3.01776 0.0 
-5 -0.248741 0.0 
0.517491 1.87079 0.0 
-1.18776 1.8875 0.0 
2.27458 0.36201 0.0 
1.9794 0.331487 0.0 
0.503086 0.510306 0.0 
1.26387 -0.370702 0.0 
1.24483 0.550197 0.0 
1.12871 0.979556 0.0 
-1.48659 1.83259 0.0 
1.0672 0.958366 0.0 
-1.16856 1.61214 0.0 
-0.218637 -0.230696 0.0 
-5 1.81431 0.0 
1.37014 1.04658 0.0 
0.0950623 0.557621 0.0 
-1.23613 1.67303 0.0 
0.953731 -0.709843 0.0 
2.07568 -1.85385 0.0 
2.10836 -1.82014 0.0 
-0.994952 1.33552 0.0 
-1.86986 1.52312 0.0 
0.515812 0.447542 0.0 
0.842446 0.992035 0.0 
-1.42353 1.8223 0.0 
2.091 0.354014 0.0 
-0.937663 0.401428 0.0 
-1.69305 1.41997 0.0 
-1.82465 1.55127 0.0 
2.15192 0.384657 0.0 
-1.17972 1.37998 0.0 
-0.718866 -0.0130647 0.0 
-0.927867 0.290435 0.0 
1.56509 0.300406 0.0 
-5 -3.04052 0.0 
9.98027 -7 0.0 
0.176009 0.694641 0.0 
0.597997 -0.559941 0.0 
-0.546583 0.4849 0.0 
0.602022 -0.657834 0.0 
2.17737 0.379672 0.0 
1.89809 0.287017 0.0 
-1.58883 1.35796 0.0 
-1.2284 1.37063 0.0 
-1.43937 1.35342 0.0 
-1.59664 1.47263 0.0 
0.577431 -0.368705 0.0 
1.5263 -1.51093 0.0 
0.479666 0.796509 0.0 
0.894995 1.01463 0.0 
2.22312 0.363016 0.0 
-0.320562 0.726481 0.0 
-1.30188 2.41386 0.0 
0.43802 0.434693 0.0 
-0.761697 0.762024 0.0 
1.45688 -1.49591 0.0 
-0.65072 0.676835 0.0 
1.6097 -1.41509 0.0 
2.25768 0.399237 0.0 
1.85518 0.299709 0.0 
2.14618 0.290757 0.0 
2.25222 0.371677 0.0 
-1.93063 2.91367 0.0 
1.52717 0.319618 0.0 
1.67964 -1.62237 0.0 
1.35962 -0.439169 0.0 
1.63007 -1.54335 0.0 
-5 -0.764504 0.0 
-1.61377 2.62271 0.0 
1.73865 -1.57725 0.0 
-0.908306 1.23669 0.0 
1.60766 0.330292 0.0 
1.82509 -1.63054 0.0 
1.90521 0.312457 0.0 
1.98719 -1.6488 0.0 
-0.528791 0.39225 0.0 
1.94978 -2.39003 0.0 
-0.472559 0.718465 0.0 
-1.28058 2.26572 0.0 
0.881581 -0.556282 0.0 
2.26369 0.42542 0.0 
0.917309 -1.69962 0.0 
0.853954 -1.60945 0.0 
1.30086 -0.404316 0.0 
1.99565 -2.46852 0.0 
1.49445 -1.47573 0.0 
1.68285 0.863315 0.0 
2.03074 -2.37549 0.0 
2.52279 -0.506167 0.0 
2.56049 -1.76899 0.0 
-1.52889 2.56597 0.0 
2.81136 -0.570221 0.0 
1.3688 -1.46095 0.0 
1.29524 -0.373946 0.0 
-0.350504 0.671928 0.0 
-0.590282 0.564035 0.0 
-0.054366 2.16706 0.0 
1.50819 1.22548 0.0 
-0.548222 0.453941 0.0 
2.19936 -2.5207 0.0 
12.2704 -7 0.0 
1.6811 -1.36761 0.0 
-0.449261 0.559535 0.0 
0.537017 -0.527614 0.0 
-0.00733391 0.553304 0.0 
0.494109 -0.356396 0.0 
-0.7939 0.0827441 0.0 
0.39888 0.467333 0.0 
-1.04288 1.34095 0.0 
0.605019 1.02824 0.0 
0.847559 0.374727 0.0 
1.00336 0.618307 0.0 
2.1955 0.399186 0.0 
0.656973 0.401158 0.0 
-0.998431 2.73564 0.0 
[...]
<PointData>
  <DataArray type = "Float64" Name="VitesseP1" NumberOfComponents="3" format="ascii">
1 0 0.0 
1.08611 0 0.0 
1.03047 0 0.0 
1 0 0.0 
0.994613 0.0158255 0.0 
0.996911 0.0111493 0.0 
0.995493 0.0136351 0.0 
1.04135 -0.00364764 0.0 
1.0432 -0.00515534 0.0 
1.04843 -0.00461298 0.0 
0.997751 0.0120787 0.0 
0.986302 0.0725006 0.0 
0.996603 0.0114829 0.0 
0.996819 0.012272 0.0 
0.9989 0.0120804 0.0 
0.992351 0.217692 0.0 
1.01897 0.0539177 0.0 
1.05002 -0.025428 0.0 
0.998825 0.0115005 0.0 
0.995023 0.0145616 0.0 
1.05498 -0.0263458 0.0 
0.99888 0.0133986 0.0 
1.16037 -0.0242768 0.0 
1.04695 0.0123614 0.0 
1.06313 -0.000906141 0.0 
0.998859 0.0129743 0.0 
0.944501 0.00870852 0.0 
1.06292 -0.0212896 0.0 
0.0661689 0.00185001 0.0 
0.988718 0.031425 0.0 
1.14191 0.0658529 0.0 
1.10984 0.141139 0.0 
0.998864 0.0124059 0.0 
1.03356 -0.0179718 0.0 
0.941345 0.0122891 0.0 
1.00553 0.0305155 0.0 
0.93696 -0.0512649 0.0 
1.08411 -0.000537388 0.0 
1.05588 0.00970223 0.0 
1.05398 -0.01468 0.0 
1.05679 -0.0041847 0.0 
0.9269 0.151349 0.0 
1.07476 -0.00999697 0.0 
1.12584 0.00320787 0.0 
1.06765 0.0075429 0.0 
1.06338 -0.0130139 0.0 
1.0618 0.0346038 0.0 
1.05658 0.0250115 0.0 
1.19857 0.0245605 0.0 
0.9395 0.0355833 0.0 
1.04025 -0.0035447 0.0 
1.00248 0.0123373 0.0 
0.999865 0.017537 0.0 
1.03972 -0.00519738 0.0 
1.03785 0.242619 0.0 
0.0380796 0.0224652 0.0 
1.04283 -0.00264566 0.0 
1.0027 0.0127269 0.0 
0.999116 0.0156505 0.0 
1.17071 -0.00552571 0.0 
0.179103 -0.0011785 0.0 
1.00242 0.012975 0.0 
1.09323 0.0614036 0.0 
1.12263 0.119435 0.0 
0.572836 0.00127602 0.0 
1.06066 -0.0262153 0.0 
1.08116 -0.00260599 0.0 
0.557731 0.134379 0.0 
0.862792 0.0853072 0.0 
1.19058 -0.010643 0.0 
1.20203 -0.036052 0.0 
1.06664 -0.0106792 0.0 
0.999081 0.0141091 0.0 
1 0 0.0 
0.330961 -0.0101008 0.0 
1.00219 0.0125651 0.0 
0.968072 0.0106139 0.0 
0.999099 0.0144671 0.0 
1.00179 0.0117688 0.0 
1.17324 0.0326063 0.0 
1.03715 0.0229762 0.0 
0.756882 -0.0401206 0.0 
0.9493 0.262651 0.0 
1.17341 0.113311 0.0 
0.946132 0.0142379 0.0 
0.969886 0.00891348 0.0 
1.00209 0.0121881 0.0 
1.06198 -0.0244049 0.0 
1.14327 0.0957409 0.0 
0.999165 0.0148153 0.0 
1.04356 0.0274087 0.0 
1.04317 -0.0139769 0.0 
1.09599 0.0782272 0.0 
0.935458 0.0699268 0.0 
1.12501 0.12358 0.0 
0.999921 0.0128887 0.0 
1.00223 0.011015 0.0 
0.0546225 -0.157374 0.0 
0.999284 0.0140343 0.0 
1.19195 -0.234236 0.0 
0.944026 0.0229908 0.0 
0.918904 -0.0883272 0.0 
0.91574 -0.0744707 0.0 
1.04737 -0.00345466 0.0 
0.924476 -0.0782144 0.0 
0.967134 -0.00812101 0.0 
1.04293 -0.0159228 0.0 
1.06825 -0.00213299 0.0 
1.19682 0.0806133 0.0 
1.03792 -0.0155544 0.0 
0.920204 -0.0885597 0.0 
0.954822 -0.00362296 0.0 
0.112567 0.0108508 0.0 
1.20199 0.0312111 0.0 
1.04377 -0.00335906 0.0 
1.03639 -0.0174068 0.0 
1.03753 -0.00789337 0.0 
1.0418 -0.0109441 0.0 
1.03518 -0.0115443 0.0 
1.03241 -0.0164218 0.0 
1.16433 0.18309 0.0 
1.03874 -0.00596541 0.0 
0.877329 0.125813 0.0 
0.999101 0.0210474 0.0 
1.03538 -0.0199278 0.0 
1.04016 0.00550426 0.0 
1.03806 -0.0222272 0.0 
1.19633 0.0882919 0.0 
1.06097 -0.0137739 0.0 
1.00012 0.0181607 0.0 
1.03893 -0.00801009 0.0 
1.02784 0.0472008 0.0 
1.00075 0.0139226 0.0 
1.03739 -0.0199168 0.0 
1.05839 -0.00955311 0.0 
1.0876 0.188339 0.0 
1.06866 -0.0725357 0.0 
0.19513 0.00608467 0.0 
1.05392 0.0232659 0.0 
0.458694 -0.0390089 0.0 
0.4025 -0.00830617 0.0 
0.977715 0.196146 0.0 
0.0707065 -0.00103358 0.0 
1.03789 -0.013405 0.0 
1.03101 -0.160277 0.0 
1.04923 0.0497588 0.0 
1.13929 0.11922 0.0 
0.998795 0.0196545 0.0 
0.0817047 0.00293104 0.0 
0.998984 0.0187234 0.0 
0.411849 -0.0165995 0.0 
0.998788 0.0147456 0.0 
1.04597 0.0277738 0.0 
0.98514 0.0246509 0.0 
0.973399 0.0344193 0.0 
1.05489 0.0388198 0.0 
0.998618 0.0159976 0.0 
0.922884 -0.079465 0.0 
0.984148 0.0210646 0.0 
1.06618 0.021263 0.0 
0.981569 0.0255025 0.0 
1.03289 0.0340725 0.0 
1.04038 -0.170781 0.0 
0.998909 0.0162853 0.0 
1.05891 -0.00585816 0.0 
0.920307 -0.0858352 0.0 
1.03343 0.0692931 0.0 
1.04675 -0.00092945 0.0 
1.06702 -0.00614169 0.0 
0.916562 -0.081656 0.0 
1.13257 0.111093 0.0 
0.999231 0.0170644 0.0 
0.927756 -0.0726573 0.0 
0.922331 -0.0825286 0.0 
0.998633 0.0128087 0.0 
1.04133 -0.00415637 0.0 
0.999489 0.0195497 0.0 
0.93896 0.151284 0.0 
1.12944 0.0472147 0.0 
0.998729 0.0151044 0.0 
0.63505 0.110319 0.0 
1.00611 0.0346527 0.0 
0.863363 0.0453088 0.0 
0.998937 0.0194443 0.0 
0.999291 0.0189681 0.0 
1.04555 -0.00543624 0.0 
0.973929 0.0239894 0.0 
1.06815 -0.0402681 0.0 
1.14163 0.198797 0.0 
1.10921 -0.12841 0.0 
0.875733 -0.0298913 0.0 
0.938165 0.0517996 0.0 
0.875049 0.0163062 0.0 
1.04418 -0.00611739 0.0 
0.924137 -0.073037 0.0 
0.933241 -0.0625179 0.0 
0.918879 -0.0741943 0.0 
0.582393 0.110613 0.0 
1.05065 -0.00615986 0.0 
0.11422 0.0149449 0.0 
1.03761 0.264487 0.0 
1.03966 -0.0164134 0.0 
1.04448 -0.0100793 0.0 
1.04925 -0.013282 0.0 
0.093986 0.0225032 0.0 
1.14254 0.1025 0.0 
1.04438 -0.0283506 0.0 
1.04785 0.0175676 0.0 
0.941395 0.00854213 0.0 
1.0338 -0.0163359 0.0 
1.03567 -0.0121625 0.0 
0.998734 0.0158833 0.0 
1.0415 -0.0335893 0.0 
0.898697 -0.0655109 0.0 
0.999085 0.0149869 0.0 
0.909809 -0.0856808 0.0 
0.245038 -0.0227026 0.0 
0.887957 -0.0838832 0.0 
0.932593 0.016041 0.0 
1.20055 0.0432443 0.0 
1.04356 0.0207204 0.0 
0.31471 -0.0525617 0.0 
1.09551 0.085923 0.0 
0.998561 0.0160842 0.0 
1.01908 0.22256 0.0 
0.951538 0.17697 0.0 
0.998912 0.0175294 0.0 
0.999375 0.0159255 0.0 
0.998761 0.0183554 0.0 
0.558772 -0.00390206 0.0 
0.967626 0.0250736 0.0 
0.96533 0.0225816 0.0 
0.41477 0.135552 0.0 
0.976433 0.0408646 0.0 
0.940237 -0.0443751 0.0 
0.301773 0.101358 0.0 
0.375601 0.184333 0.0 
1.06347 0.296371 0.0 
1.0693 -0.102297 0.0 
0.967093 0.0195068 0.0 
1.13714 0.0474064 0.0 
0.324677 -0.00966198 0.0 
1.00034 0.0117013 0.0 
0.990318 0.0337535 0.0 
1.00969 0.0351546 0.0 
0.983737 0.0310995 0.0 
0.999693 0.0166511 0.0 
0.918724 0.0212762 0.0 
1.0589 -0.131058 0.0 
0.918954 0.0755141 0.0 
0.90872 0.131758 0.0 
1.04533 0.0141501 0.0 
1.19195 0.0404672 0.0 
0.829926 0.116547 0.0 
1.05525 -0.0330635 0.0 
0.572088 0.0200498 0.0 
0.975704 0.0434679 0.0 
0.932636 -0.0502712 0.0 
0.702489 0.194418 0.0 
0.899468 0.338715 0.0 
0.987246 0.0263128 0.0 
1.06498 -0.0128342 0.0 
0.96718 0.0860696 0.0 
1.11315 -0.0757862 0.0 
1.11019 0.0607292 0.0 
0.983112 0.0327465 0.0 
0.956233 0.0120666 0.0 
1.19258 0.0456109 0.0 
0.999187 0.0230658 0.0 
1.07771 0.283371 0.0 
1.16601 0.0341858 0.0 
1.12363 -0.0767744 0.0 
0.994062 0.0101783 0.0 
1.01757 0.0463118 0.0 
0.937412 0.00743018 0.0 
0.997213 0.00849524 0.0 
1.01867 0.28383 0.0 
1.05502 -0.0210409 0.0 
1.00167 0.150657 0.0 
0.92513 -0.00663369 0.0 
1.03591 0.0321697 0.0 
0.992794 0.0287943 0.0 
1.03654 0.0173551 0.0 
0.962745 0.0257606 0.0 
0.98497 0.0283066 0.0 
1.03599 0.00838994 0.0 
1 0 0.0 
1.06764 -0.00548532 0.0 
0.984689 0.0299525 0.0 
1.04516 -0.000339888 0.0 
0.987535 0.0280969 0.0 
1.03227 -0.0307493 0.0 
1.03426 -0.0269148 0.0 
1.19355 0.097629 0.0 
0.984768 0.0263367 0.0 
1.12932 -0.081394 0.0 
0.914396 -0.146393 0.0 
1.0661 -0.00124515 0.0 
1.12803 -0.114104 0.0 
1.14604 0.0497303 0.0 
0.931314 0.0272679 0.0 
1.03707 0.00197636 0.0 
0.995958 0.0172783 0.0 
0.979685 0.0392393 0.0 
0.984026 0.0111874 0.0 
0.995475 0.0104349 0.0 
0.990018 0.0213136 0.0 
1.09066 0.16737 0.0 
0.948555 0.0245358 0.0 
0.998724 0.017732 0.0 
1.14483 0.0572789 0.0 
1.16466 0.0380156 0.0 
0.998466 0.0169793 0.0 
0.934166 -0.0565456 0.0 
0.999083 0.0142723 0.0 
1.04304 -0.127858 0.0 
0.995055 0.0178728 0.0 
1.00019 0.0110866 0.0 
0.980701 0.0283841 0.0 
0.988787 0.0283402 0.0 
0.996598 0.021458 0.0 
0.991859 0.0301813 0.0 
0.882319 -0.105678 0.0 
1 0 0.0 
1 0 0.0 
1.02961 0.0464397 0.0 
0.995269 0.0241118 0.0 
0.271911 -0.00425118 0.0 
0.0811982 0.00977531 0.0 
1.11717 0.216195 0.0 
0.963357 -0.0444561 0.0 
1.20077 0.0741101 0.0 
1.14346 0.0614241 0.0 
0.994484 0.0185808 0.0 
1.14041 0.0695656 0.0 
0.991794 0.0246498 0.0 
0.948468 -0.164066 0.0 
1 0 0.0 
1.15593 0.0318868 0.0 
0.961856 0.189546 0.0 
0.99275 0.0231594 0.0 
1.14403 -0.08434 0.0 
1.04358 0.0146419 0.0 
1.04406 0.0163105 0.0 
0.982818 0.0290476 0.0 
0.995334 0.0114223 0.0 
1.12879 0.231486 0.0 
1.11778 0.0894744 0.0 
0.994234 0.019633 0.0 
0.181078 0.00188621 0.0 
0.958479 0.00116768 0.0 
0.992085 0.0122202 0.0 
0.995261 0.0121345 0.0 
0.368583 -0.00144149 0.0 
0.985492 0.0232639 0.0 
0.94859 -0.0292969 0.0 
0.953619 -0.0068344 0.0 
0.0979703 -0.0108558 0.0 
1 0 0.0 
1.06707 0 0.0 
1.00789 0.165629 0.0 
1.12008 -0.1456 0.0 
0.932063 0.0357359 0.0 
1.11316 -0.129701 0.0 
0.336758 -0.00226827 0.0 
0.0763849 0.000719145 0.0 
0.989624 0.0129483 0.0 
0.985628 0.0217815 0.0 
0.987421 0.0160826 0.0 
0.991647 0.0143762 0.0 
1.10932 -0.173144 0.0 
1.06677 -0.00983313 0.0 
1.07972 0.146171 0.0 
1.12063 0.0823242 0.0 
0.261479 -0.000350833 0.0 
0.956732 0.0789594 0.0 
1.00064 0.0202459 0.0 
1.11163 0.256479 0.0 
0.972262 0.0324784 0.0 
1.06603 -0.0136941 0.0 
0.959317 0.0377759 0.0 
1.06568 -0.00640948 0.0 
0.492497 -0.0115618 0.0 
0.0782675 0.00476554 0.0 
0.0664392 0.0242705 0.0 
0.312922 -0.00532222 0.0 
0.999801 0.0123348 0.0 
0.0828847 0.000179981 0.0 
1.05953 -0.00137307 0.0 
1.16321 -0.041342 0.0 
1.067 -0.00429307 0.0 
1 0 0.0 
0.999823 0.0159505 0.0 
1.06508 0.00140057 0.0 
0.979078 0.0319566 0.0 
0.103647 0.00610486 0.0 
1.05914 0.00553707 0.0 
0.0799501 0.00138534 0.0 
1.05638 0.0129752 0.0 
0.920411 0.0279415 0.0 
1.04143 0.000797332 0.0 
0.957378 0.0581296 0.0 
0.999982 0.0212526 0.0 
1.19546 -0.109217 0.0 
0.69828 -0.013401 0.0 
1.03636 -0.0307577 0.0 
1.0418 -0.0361429 0.0 
1.0721 -0.0434986 0.0 
1.05382 0.00978009 0.0 
1.06653 -0.012016 0.0 
1.18715 0.0190789 0.0 
1.04076 0.013886 0.0 
1.24131 0.0853333 0.0 
1.03454 0.0293911 0.0 
1.00003 0.0169962 0.0 
1.17056 0.107011 0.0 
1.06413 -0.0188328 0.0 
0.976484 -0.0445306 0.0 
0.947812 0.0739377 0.0 
0.944267 0.0372433 0.0 
1.01442 0.0422998 0.0 
1.13148 -0.00415599 0.0 
0.92897 0.0325916 0.0 
1.00803 -0.00561952 0.0 
1.06418 0 0.0 
1.06277 -0.00254938 0.0 
0.933897 0.0542794 0.0 
1.13967 -0.16321 0.0 
0.935767 0.160245 0.0 
1.10371 -0.194681 0.0 
0.952664 -0.0200542 0.0 
1.08794 0.250353 0.0 
0.983287 0.0273565 0.0 
1.08709 0.103693 0.0 
0.792203 0.100759 0.0 
1.17596 0.10428 0.0 
0.487994 -0.00605302 0.0 
1.07703 0.185638 0.0 
1.00423 0.0212461 0.0 
1.05604 0.015771 0.0 
1.04248 0.00902232 0.0 
1.04786 -0.00047014 0.0 
1.04624 0.00059309 0.0 
0.0961503 0.0191237 0.0 
1.04144 0.00239499 0.0 
0.000318635 0.0225091 0.0 
1.08744 -0.048737 0.0 
1.00413 0.0350895 0.0 
1.04426 0.00967691 0.0 
1 0 0.0 
0.983273 0.0261943 0.0 
1.19405 0.0934512 0.0 
0.7965 -0.044787 0.0 
0.999675 0.0153935 0.0 
0.991796 0.0389324 0.0 
1.05005 0.0105827 0.0 
1.05476 0.00578626 0.0 
0.939999 0.188891 0.0 
0.782432 0.130117 0.0 
1.00443 0.0182296 0.0 
1.14697 0.127807 0.0 
1.00005 0.24306 0.0 
0.999181 0.0120245 0.0 
0.986015 0.0290597 0.0 
1.05147 0.00166369 0.0 
0.937958 0.124522 0.0 
0.206083 0.00333191 0.0 
1.05047 0.00378525 0.0 
0.174477 0.0990238 0.0 
1.05071 -0.00042635 0.0 
1.03909 -0.0161684 0.0 
1.01578 0.0476047 0.0 
1.13994 -0.0583469 0.0 
1.0472 0.00270737 0.0 
0.957112 -0.00622789 0.0 
0.356987 0.0117786 0.0 
1.06285 -0.0222684 0.0 
0.94667 -0.00143354 0.0 
0.999886 0.0150847 0.0 
1.06042 -0.0271723 0.0 
0.94186 0.0656567 0.0 
1.19716 -0.0438091 0.0 
0.304424 -0.0278913 0.0 
0.622257 -0.0180204 0.0 
0.941196 -0.00461389 0.0 
0.9648 0.272193 0.0 
0.252267 0.0476602 0.0 
0.997152 0.315743 0.0 
0.961221 -0.00816592 0.0 
1.07888 -0.0421449 0.0 
0.728352 -0.00011666 0.0 
0.357994 0.116192 0.0 
1.10164 0.0688111 0.0 
0.998763 0.0121406 0.0 
0.579244 0.000483332 0.0 
0.186954 0.0241389 0.0 
0.914677 -0.0433859 0.0 
0.788986 -0.026336 0.0 
1.03029 0.045725 0.0 
0.998807 0.0117436 0.0 
1.02651 -0.0976201 0.0 
1.11859 -0.0328085 0.0 
1.17405 0.020769 0.0 
0.0786549 0.000187256 0.0 
0.936481 -0.0575756 0.0 
1.0339 0.0415879 0.0 
1.0666 -0.00759922 0.0 
0.938187 -0.00900006 0.0 
0.0979341 0.00611717 0.0 
0.998842 0.0126673 0.0 
1.17251 0.0259521 0.0 
1.05891 -0.0264679 0.0 
0.963968 0.215915 0.0 
1.05154 0.0151388 0.0 
1.06796 0.000720688 0.0 
1.06795 0.00550321 0.0 
0.954572 0.037537 0.0 
1.06081 -0.0242282 0.0 
0.99898 0.0138441 0.0 
0.952299 0.00704952 0.0 
1.14231 -0.0317005 0.0 
1.05412 0.0209585 0.0 
0.989354 0.00732947 0.0 
0.953475 0.0153066 0.0 
0.999025 0.0140272 0.0 
1.05801 0.00580075 0.0 
1.04177 -0.0046404 0.0 
1.06069 -0.0214818 0.0 
0.990518 0.00897367 0.0 
1.02061 0.0457641 0.0 
0.998887 0.0133012 0.0 
1.04554 -0.0261468 0.0 
1.0649 0.0197332 0.0 
0.0580673 0.023523 0.0 
0.0629328 0.00800686 0.0 
1.06801 0.0156313 0.0 
0.905539 -0.0564284 0.0 
0.893242 -0.0471485 0.0 
0.882278 0.11972 0.0 
0.999494 0.0139542 0.0 
0.998901 0.0139514 0.0 
0.96289 -0.0131923 0.0 
0.965045 -0.00198571 0.0 
1.03402 0.0257772 0.0 
0.963969 0.234791 0.0 
1.06725 0.151579 0.0 
1.02986 -0.0442308 0.0 
0.068143 0.00862135 0.0 
1.16034 0.0210995 0.0 
1.09408 0.141698 0.0 
0.998747 0.0134767 0.0 
1.01512 0.0353963 0.0 
1.10971 -0.00954071 0.0 
0.982829 0.0209461 0.0 
0.934567 0.0464184 0.0 
1.03124 -0.0287704 0.0 
0.973377 0.0373615 0.0 
0.941283 0.108937 0.0 
0.934235 0.0589307 0.0 
0.839673 -0.041719 0.0 
0.962928 0.00710421 0.0 
0.793005 -0.0475202 0.0 
1.00113 0.0181352 0.0 
1.0293 0.0430475 0.0 
0.953901 -0.0102149 0.0 
0.96163 -0.0010331 0.0 
0.922718 0.0342053 0.0 
1.10144 0.248697 0.0 
0.972375 0.00606873 0.0 
0.942751 0.291667 0.0 
0.945467 0.0327771 0.0 
0.975407 0.226301 0.0 
0.850306 0.285894 0.0 
0.995201 0.00753701 0.0 
1.00104 0 0.0 
0.998835 0.0121435 0.0 
0.977311 0.00153437 0.0 
0.895398 0.153603 0.0 
0.135365 0.00834351 0.0 
1.01066 0.0436513 0.0 
0.980795 0.00714267 0.0 
0.999404 0.0125394 0.0 
0.915982 -0.0718346 0.0 
0.916742 0.0329996 0.0 
1.19965 -0.0322423 0.0 
0.998738 0.0124093 0.0 
0.9705 0.0798477 0.0 
0.786576 -0.0882439 0.0 
1.03378 -0.0229409 0.0 
0.936292 0.0636593 0.0 
0.995323 0.0162275 0.0 
0.944504 0.0275404 0.0 
0.991077 0.0200618 0.0 
0.0777812 0.00854189 0.0 
0.777574 -0.0771862 0.0 
1.04265 -0.00313938 0.0 
1.15055 0.0846711 0.0 
1.15597 -0.0331451 0.0 
0.997704 0.0107197 0.0 
0.982208 0.018614 0.0 
1.00494 0.201877 0.0 
1.11443 0.157217 0.0 
0.584334 0.0953548 0.0 
0.951302 0.189061 0.0 
0.981583 0.0189809 0.0 
0.329909 -0.0351394 0.0 
0.982583 0.0218996 0.0 
0.997317 0.0127662 0.0 
1.00043 0.0196099 0.0 
0.277677 -0.0241403 0.0 
0.2313 -0.0160616 0.0 
0.981776 0.0301495 0.0 
0.339049 0.0579692 0.0 
1.19276 0.0892016 0.0 
1.0099 0.0431086 0.0 
0.980935 0.0324079 0.0 
0.999779 0.0195225 0.0 
0.977954 0.0112296 0.0 
0.930396 0.0687099 0.0 
0.976612 0.0257491 0.0 
0.852279 0.285137 0.0 
0.504397 -0.0333208 0.0 
0.253973 -0.0202496 0.0 
0.968241 0.0135137 0.0 
0.974833 0.0121377 0.0 
1.05457 0.20451 0.0 
0.340224 -0.0301287 0.0 
0.939954 0.021005 0.0 
1.0345 -0.038168 0.0 
0.983269 0.245744 0.0 
0.999342 0.0135934 0.0 
0.922653 0.0818235 0.0 
0.972405 0.0310388 0.0 
0.93028 0.143282 0.0 
0.960267 0.15609 0.0 
1.00911 0.255129 0.0 
0.724701 -0.0296428 0.0 
0.93749 -0.0523214 0.0 
1.11333 0.060632 0.0 
0.469862 0.0935279 0.0 
0.926616 -0.0596425 0.0 
0.140649 0.010635 0.0 
0.899205 -0.0128509 0.0 
0.74981 0.135817 0.0 
0.915318 -0.0664091 0.0 
0.922384 -0.0561329 0.0 
0.615252 0.165072 0.0 
1.04683 0.00767662 0.0 
0.941059 0.17337 0.0 
0.879842 -0.00490613 0.0 
0.928505 -0.0537135 0.0 
1.03978 -0.00549834 0.0 
0.341298 0.0413994 0.0 
1.03693 -0.00854857 0.0 
0.866262 0.00741952 0.0 
0.898016 0.217193 0.0 
1.04808 -0.00071757 0.0 
0.906901 -0.0880804 0.0 
0.922188 0.182704 0.0 
0.32287 -0.0331526 0.0 
1.12679 0.0636591 0.0 
1.03526 0.169987 0.0 
0.831506 0.380828 0.0 
1.1023 0.16454 0.0 
1.06447 0.259691 0.0 
0.979806 -0.0451673 0.0 
0.752271 -0.104934 0.0 
0.977712 0.0333394 0.0 
0.523965 0.0617785 0.0 
0.918618 -0.0526304 0.0 
1.04492 0.0676048 0.0 
0.21122 0.0019789 0.0 
1.04416 0.263551 0.0 
1.0571 0.0413702 0.0 
0.879179 0.105308 0.0 
1.00532 0.0217498 0.0 
0.892912 0.0669739 0.0 
0.168221 0.00915993 0.0 
0.853481 0.0764334 0.0 
0.949493 0.0368867 0.0 
0.947406 0.0039031 0.0 
1.17357 -0.0375307 0.0 
0.763872 0.335366 0.0 
0.847843 0.0891503 0.0 
1.02813 0.0726928 0.0 
1.08239 -0.0948932 0.0 
0.921262 -0.0468642 0.0 
1.04023 0.271771 0.0 
0.964771 0.0169065 0.0 
0.995678 0.0403261 0.0 
0.910397 0.0770363 0.0 
0.924708 0.112649 0.0 
0.910816 0.0354454 0.0 
1.00944 0.0275631 0.0 
0.919949 0.105966 0.0 
0.917613 0.220842 0.0 
0.999262 0.0126854 0.0 
1.09214 -0.0702587 0.0 
0.339219 -0.0383399 0.0 
1.05412 0.251029 0.0 
0.966333 0.202999 0.0 
0.80733 0.151274 0.0 
0.827148 0.0382258 0.0 
0.886456 0.029863 0.0 
1.04235 0.305151 0.0 
0.999645 0.0173597 0.0 
1.12493 0.139438 0.0 
1.03331 0.226324 0.0 
0.886578 -0.0483104 0.0 
0.923048 -0.00190485 0.0 
0.858571 0.158434 0.0 
0.91109 0.020681 0.0 
0.88534 0.0148762 0.0 
0.932514 -0.0460379 0.0 
0.934351 0.207239 0.0 
0.995714 0.0303869 0.0 
0.999656 0.0148589 0.0 
0.140235 0.0115854 0.0 
0.124238 0.0143091 0.0 
0.913042 0.0277913 0.0 
0.5271 0.153592 0.0 
1.03804 -0.00714006 0.0 
0.92186 -0.0163544 0.0 
0.978014 -0.00095438 0.0 
0.902764 0.0765066 0.0 
0.842072 0.00673332 0.0 
1.08208 -0.066667 0.0 
0.955117 0.00800864 0.0 
0.975542 0.00914194 0.0 
1.08445 0.267615 0.0 
0.258388 -0.0168889 0.0 
0.930844 0.300237 0.0 
0.97303 0.00266768 0.0 
0.988837 0.0541502 0.0 
1.06917 -0.22911 0.0 
0.969011 0.00471193 0.0 
0.961759 0.0125889 0.0 
0.997721 0.0133215 0.0 
1.03743 -0.00824383 0.0 
0.799259 0.108246 0.0 
0.904611 0.0184187 0.0 
0.990919 0.00546066 0.0 
1.02884 -0.18253 0.0 
0.995198 0.015507 0.0 
0.935582 0.0241429 0.0 
0.811571 0.168043 0.0 
0.950095 -0.00846744 0.0 
0.998114 0.0101966 0.0 
0.938841 0.0047473 0.0 
0.188924 0.128346 0.0 
0.943956 -0.00837518 0.0 
1.06466 -0.00889826 0.0 
0.954162 0.288672 0.0 
0.0914361 0.0153745 0.0 
1.10165 0.254892 0.0 
0.987984 0.0149286 0.0 
0.951209 -0.141414 0.0 
0.968906 0.00187543 0.0 
0.959678 0.00917676 0.0 
0.959931 0.00457419 0.0 
0.544293 0.134819 0.0 
0.961969 0.00189183 0.0 
0.956087 -0.0135495 0.0 
0.652779 0.184128 0.0 
1.03423 -0.0120545 0.0 
1.03288 0.0451377 0.0 
0.997396 0.265826 0.0 
0.981031 0.0208961 0.0 
0.975476 0.0290875 0.0 
0.964728 0.00397034 0.0 
0.893633 0.0129388 0.0 
0.959035 -0.017847 0.0 
0.119531 -0.00057602 0.0 
0.968768 -0.000191586 0.0 
1.0595 0.0176878 0.0 
0.876427 0.167997 0.0 
0.996476 0.0121198 0.0 
1.06449 0.0279076 0.0 
1.0572 0.0946209 0.0 
1.10251 -0.0703485 0.0 
1.09632 0.104319 0.0 
0.976577 -0.00292269 0.0 
0.87709 0.182949 0.0 
0.996653 0.0145276 0.0 
0.996954 0.011193 0.0 
0.890096 -0.0411876 0.0 
0.978709 0.0258596 0.0 
1.16433 -0.226778 0.0 
0.677327 0.0125527 0.0 
0.94212 0.0415666 0.0 
1.01771 0.302564 0.0 
0.908606 0.353173 0.0 
0.839333 0.132071 0.0 
1.15958 0.0740267 0.0 
0.154119 0.134018 0.0 
1.01869 0.289491 0.0 
1.0668 0.265694 0.0 
1.03887 -0.00540949 0.0 
0.938957 0.0941621 0.0 
0.0536081 0.00729614 0.0 
1.17657 0.146539 0.0 
0.977812 0.0319454 0.0 
0.910207 0.121978 0.0 
1.12726 0.219494 0.0 
0.851677 0.124253 0.0 
-0.0401475 -0.0182839 0.0 
0.978905 0.0300796 0.0 
0.925265 0.0735825 0.0 
0.746384 0.1403 0.0 
0.979745 0.0268239 0.0 
0.912011 0.150043 0.0 
0.99589 0.0125962 0.0 
0.903333 0.101412 0.0 
0.979237 0.027993 0.0 
0.854201 0.0556102 0.0 
0.831319 0.0224796 0.0 
0.904502 0.164114 0.0 
0.998786 0.0114284 0.0 
0.968979 -0.00466608 0.0 
0.980207 0.0251659 0.0 
0.999155 0.0176457 0.0 
0.96284 -0.00470026 0.0 
0.961818 -0.00837387 0.0 
0.966287 -0.00415519 0.0 
0.938487 -0.0414122 0.0 
0.926034 0.0580893 0.0 
0.926649 0.0880409 0.0 
1.04074 -0.00081655 0.0 
0.989761 0.032117 0.0 
1.0633 0.0291205 0.0 
0.999274 0.0145331 0.0 
1.07775 -0.00542215 0.0 
1.00512 0.0797987 0.0 
0.949817 0.0133149 0.0 
0.976961 0.0271646 0.0 
1.05043 -0.160796 0.0 
1.10198 0.242797 0.0 
1.12495 0.230982 0.0 
0.933599 -0.0321691 0.0 
0.999166 0.0140619 0.0 
0.951308 0.0109711 0.0 
0.996399 0.013677 0.0 
0.979584 0.00541786 0.0 
1.05503 0.0111189 0.0 
1.04931 -0.17152 0.0 