<VTKFile type="UnstructuredGrid" version="0.1" byte_order="LittleEndian">
  <UnstructuredGrid>
    <Piece NumberOfPoints="9712" NumberOfCells="19403">
      <Points>
        <DataArray type = "Float64" NumberOfComponents="3" format="ascii">
-5 -7 0.0 
15.5 -7 0.0 
15.5 7 0.0 
-5 7 0.0 
-1.6546 1.77742 0.0 
-2.13867 1.86504 0.0 
-1.83467 1.79143 0.0 
1.47969 -2.21179 0.0 
1.36003 -2.38618 0.0 
1.4346 -2.45048 0.0 
-2.04214 1.94165 0.0 
-0.20425 1.17338 0.0 
-2.07648 1.81911 0.0 
-2.00827 1.89081 0.0 
-2.05492 1.98872 0.0 
0.192693 0.536219 0.0 
0.154285 1.75648 0.0 
1.1379 -1.62057 0.0 
-2.11226 1.96977 0.0 
-1.74119 1.75327 0.0 
1.14499 -1.58184 0.0 
-1.94373 2.37229 0.0 
1.50619 -0.664239 0.0 
1.99658 -1.76705 0.0 
1.7229 -1.18344 0.0 
-1.97759 2.52091 0.0 
-0.768046 0.387136 0.0 
1.32657 -1.43969 0.0 
1.90142 0.24821 0.0 
-0.93264 1.51038 0.0 
1.09557 0.967223 0.0 
0.627111 0.757352 0.0 
-2.05707 2.31394 0.0 
1.34027 -2.45136 0.0 
-0.725097 0.397516 0.0 
-0.666094 2.30428 0.0 
-0.73829 -0.279965 0.0 
1.73336 -1.08822 0.0 
1.88466 -1.24421 0.0 
1.50539 -1.23752 0.0 
1.65978 -1.30759 0.0 
-0.0409718 0.542603 0.0 
1.6005 -1.1227 0.0 
1.78439 -0.941488 0.0 
1.86015 -1.54236 0.0 
1.49308 -1.40058 0.0 
2.34892 -1.47149 0.0 
2.13832 -1.3246 0.0 
1.73061 0.751302 0.0 
-0.580328 0.526903 0.0 
1.51013 -2.1595 0.0 
-1.65424 3.45779 0.0 
-1.51397 2.46352 0.0 
1.42773 -2.17867 0.0 
0.304353 0.497878 0.0 
2.24628 0.228293 0.0 
1.51258 -2.27933 0.0 
-1.60346 3.44299 0.0 
-1.71408 2.36227 0.0 
2.17421 0.530405 0.0 
2.42 0.316451 0.0 
-1.63642 3.31911 0.0 
2.53942 -0.995036 0.0 
0.750003 0.810439 0.0 
2.04736 0.40918 0.0 
1.19615 -1.50641 0.0 
2.13474 0.494063 0.0 
0.547924 0.306722 0.0 
-0.2059 0.361394 0.0 
2.2127 0.547693 0.0 
1.41442 -0.597105 0.0 
1.52233 -1.46252 0.0 
-1.84114 2.53924 0.0 
-5 -2.53894 0.0 
2.32127 0.371156 0.0 
-1.69186 3.33379 0.0 
-0.964779 0.566136 0.0 
-1.81311 2.48387 0.0 
-1.78557 3.38304 0.0 
1.48278 0.914136 0.0 
2.51531 -1.89689 0.0 
1.20982 -0.330514 0.0 
0.408434 0.319657 0.0 
0.95023 0.60993 0.0 
-0.752349 0.440796 0.0 
-0.998248 0.564019 0.0 
-1.73165 3.36299 0.0 
1.24353 -1.49063 0.0 
0.942095 0.817189 0.0 
-1.77816 2.47096 0.0 
2.48183 -1.95479 0.0 
1.33574 -1.77854 0.0 
0.823335 1.12085 0.0 
-0.36308 0.598468 0.0 
0.745466 0.783414 0.0 
-1.88344 2.8521 0.0 
-1.79794 3.52221 0.0 
3.0087 0.272815 0.0 
-1.81486 2.66014 0.0 
0.375911 -0.403668 0.0 
-0.68323 0.487288 0.0 
-0.34187 -0.274923 0.0 
-0.293875 -0.201368 0.0 
1.61018 -1.767 0.0 
-0.448275 -0.347267 0.0 
-1.08687 0.352015 0.0 
1.29257 -1.76345 0.0 
1.67658 -1.49551 0.0 
1.19193 0.533009 0.0 
1.21582 -1.91654 0.0 
-0.36438 -0.346225 0.0 
-0.92534 0.330346 0.0 
2.3836 0.287756 0.0 
1.68841 0.639887 0.0 
1.59001 -1.89458 0.0 
1.14818 -1.92143 0.0 
1.28996 -2.19426 0.0 
1.37603 -1.8763 0.0 
1.23834 -2.09141 0.0 
1.11702 -2.06287 0.0 
0.691829 0.463808 0.0 
1.46523 -2.03459 0.0 
-0.123547 0.424486 0.0 
-1.3311 2.12174 0.0 
1.08169 -1.90074 0.0 
1.87975 -2.15971 0.0 
1.10131 -1.78593 0.0 
1.13722 0.534683 0.0 
1.42465 -1.59031 0.0 
-1.45435 2.47344 0.0 
1.41998 -1.98207 0.0 
0.463917 1.8787 0.0 
-1.72896 2.89571 0.0 
1.12419 -1.84975 0.0 
1.59054 -1.20634 0.0 
0.46124 0.621002 0.0 
0.806438 -1.00204 0.0 
2.1804 0.349761 0.0 
2.21142 -1.6418 0.0 
1.10152 -0.274558 0.0 
2.23388 0.387302 0.0 
0.137769 0.567007 0.0 
1.88736 0.267391 0.0 
1.26821 -1.94267 0.0 
0.21033 -0.605707 0.0 
2.61094 -1.50046 0.0 
0.819837 0.743337 0.0 
-1.4303 2.07799 0.0 
1.82013 0.322126 0.0 
-1.47649 2.2099 0.0 
1.15745 -0.274223 0.0 
-1.81198 2.24994 0.0 
2.34337 -1.67775 0.0 
-1.13329 1.37877 0.0 
-0.828215 1.05292 0.0 
2.46752 -1.53452 0.0 
-1.69915 2.18529 0.0 
-0.404416 -0.286271 0.0 
-1.23501 1.31766 0.0 
2.11757 -1.50659 0.0 
-1.08535 1.28274 0.0 
2.58548 -1.70783 0.0 
0.24729 -0.572345 0.0 
-1.66963 2.25319 0.0 
1.58322 -1.62308 0.0 
-0.367923 -0.306026 0.0 
0.391521 1.44485 0.0 
1.88977 -2.46319 0.0 
1.5943 -1.53613 0.0 
-0.357143 -0.23651 0.0 
0.82621 0.80563 0.0 
-1.59261 2.31884 0.0 
-0.47244 -0.307516 0.0 
-0.40334 -0.326688 0.0 
-2.00063 2.11543 0.0 
1.55514 -1.95078 0.0 
-1.40431 2.26352 0.0 
-0.0265928 0.573714 0.0 
1.17093 1.10579 0.0 
-1.77907 2.22111 0.0 
0.682788 0.329642 0.0 
-0.54475 2.15572 0.0 
-0.288592 0.289433 0.0 
-1.43199 2.16349 0.0 
-1.45029 2.25134 0.0 
1.5535 -1.79992 0.0 
-1.06406 1.08381 0.0 
1.72954 1.44966 0.0 
0.582806 0.515814 0.0 
0.582876 -0.679913 0.0 
1.32351 -0.355916 0.0 
-0.47505 0.577092 0.0 
-0.371167 0.227715 0.0 
1.52235 -1.8529 0.0 
-0.429822 -0.244811 0.0 
-0.53237 -0.24648 0.0 
-0.393983 -0.210364 0.0 
0.652895 0.317361 0.0 
1.55812 -1.70765 0.0 
1.63021 0.325622 0.0 
0.442731 0.358729 0.0 
1.22925 -1.85192 0.0 
1.43517 -1.79082 0.0 
1.39317 -1.6984 0.0 
1.62965 0.295952 0.0 
0.905462 0.793465 0.0 
1.04036 -1.64811 0.0 
2.1131 -1.72466 0.0 
-0.743911 0.369492 0.0 
1.14427 -1.99314 0.0 
1.26033 -2.0209 0.0 
-1.70955 2.07308 0.0 
0.910023 -1.62976 0.0 
-0.313059 -0.0954838 0.0 
-1.77334 2.3988 0.0 
-0.311958 -0.24042 0.0 
2.53315 0.325608 0.0 
-0.273728 -0.226719 0.0 
-0.646401 0.379627 0.0 
1.52426 0.616074 0.0 
2.21703 -1.79499 0.0 
2.71108 0.312216 0.0 
0.759924 1.093 0.0 
-1.69271 2.12368 0.0 
0.255794 0.540969 0.0 
0.0534699 0.562158 0.0 
-1.5679 2.22408 0.0 
-1.66906 2.45165 0.0 
-1.51895 2.09449 0.0 
2.16948 0.408238 0.0 
-0.818806 0.680638 0.0 
-0.826868 0.642087 0.0 
0.519855 0.276992 0.0 
-0.716682 1.18602 0.0 
-0.649974 -0.148775 0.0 
0.457368 0.256619 0.0 
0.517407 0.248194 0.0 
0.327129 0.39802 0.0 
0.533249 -0.878832 0.0 
-0.870735 0.634904 0.0 
1.19219 1.07557 0.0 
2.35922 0.366028 0.0 
-1.66911 3.66723 0.0 
-0.857603 1.54934 0.0 
-0.379189 2.30131 0.0 
-0.941007 1.36523 0.0 
-1.58662 2.49682 0.0 
-0.545297 0.352587 0.0 
0.327944 -0.744683 0.0 
-0.312756 0.524741 0.0 
-0.107843 0.506233 0.0 
2.13378 -2.36584 0.0 
1.52689 0.686953 0.0 
-0.119983 0.327909 0.0 
1.02161 -1.53072 0.0 
1.51507 0.39695 0.0 
-0.674484 1.02605 0.0 
-0.564724 -0.148435 0.0 
0.409388 0.290913 0.0 
0.252349 0.30842 0.0 
-1.09282 1.45998 0.0 
1.45674 -1.54484 0.0 
-0.266777 0.782169 0.0 
0.91327 -0.874389 0.0 
1.01208 1.13309 0.0 
-0.897136 1.35063 0.0 
-0.846484 0.489353 0.0 
1.47563 0.663768 0.0 
-1.22282 2.05021 0.0 
0.348906 0.416714 0.0 
1.41913 0.964648 0.0 
0.933289 -0.839038 0.0 
-1.85066 1.40221 0.0 
0.142477 1.99435 0.0 
-0.717809 0.341194 0.0 
-2.21177 1.41584 0.0 
0.396571 0.350929 0.0 
1.25171 -1.60721 0.0 
0.736798 0.393502 0.0 
-0.661427 0.19031 0.0 
2.18751 -2.32769 0.0 
-1.00908 1.6747 0.0 
2.21416 -2.07269 0.0 
-0.779194 0.642011 0.0 
-1.02312 1.3939 0.0 
2.08809 -2.24876 0.0 
-5 -4.48794 0.0 
1.61792 -1.46215 0.0 
-0.974627 1.38947 0.0 
1.81166 -2.48446 0.0 
-1.03635 1.47474 0.0 
0.869004 -1.74424 0.0 
0.956579 -1.78598 0.0 
1.07495 0.540689 0.0 
-1.08005 1.37763 0.0 
0.914755 -0.803058 0.0 
0.611759 -0.305322 0.0 
1.70043 -1.41356 0.0 
0.75708 -0.631542 0.0 
1.21215 1.01979 0.0 
-0.586902 0.440014 0.0 
1.9251 -2.56336 0.0 
-1.58261 1.91091 0.0 
-0.746541 1.26087 0.0 
-1.49915 1.13657 0.0 
-1.46675 0.971536 0.0 
-1.05881 0.930935 0.0 
0.71826 0.415078 0.0 
-0.701697 0.526982 0.0 
-1.56194 2.05157 0.0 
1.15988 0.991244 0.0 
1.38676 0.949615 0.0 
-1.61697 2.02689 0.0 
1.13748 -0.357331 0.0 
-1.8456 2.04561 0.0 
0.253686 -0.756334 0.0 
-1.53603 1.86509 0.0 
-1.43465 0.924137 0.0 
-1.00273 1.27416 0.0 
-1.03063 1.5132 0.0 
-1.32483 1.94769 0.0 
-0.965552 1.61445 0.0 
-0.239859 -0.245939 0.0 
-5 3.01776 0.0 
-5 -0.248741 0.0 
0.517491 1.87079 0.0 
-1.18776 1.8875 0.0 
2.27458 0.36201 0.0 
1.9794 0.331487 0.0 
0.503086 0.510306 0.0 
1.26387 -0.370702 0.0 
1.24483 0.550197 0.0 
1.12871 0.979556 0.0 
-1.48659 1.83259 0.0 
1.0672 0.958366 0.0 
-1.16856 1.61214 0.0 
-0.218637 -0.230696 0.0 
-5 1.81431 0.0 
1.37014 1.04658 0.0 
0.0950623 0.557621 0.0 
-1.23613 1.67303 0.0 
0.953731 -0.709843 0.0 
2.07568 -1.85385 0.0 
2.10836 -1.82014 0.0 
-0.994952 1.33552 0.0 
-1.86986 1.52312 0.0 
0.515812 0.447542 0.0 
0.842446 0.992035 0.0 
-1.42353 1.8223 0.0 
2.091 0.354014 0.0 
-0.937663 0.401428 0.0 
-1.69305 1.41997 0.0 
-1.82465 1.55127 0.0 
2.15192 0.384657 0.0 
-1.17972 1.37998 0.0 
-0.718866 -0.0130647 0.0 
-0.927867 0.290435 0.0 
1.56509 0.300406 0.0 
-5 -3.04052 0.0 
9.98027 -7 0.0 
0.176009 0.694641 0.0 
0.597997 -0.559941 0.0 
-0.546583 0.4849 0.0 
0.602022 -0.657834 0.0 
2.17737 0.379672 0.0 
1.89809 0.287017 0.0 
-1.58883 1.35796 0.0 
-1.2284 1.37063 0.0 
-1.43937 1.35342 0.0 
-1.59664 1.47263 0.0 
0.577431 -0.368705 0.0 
1.5263 -1.51093 0.0 
0.479666 0.796509 0.0 
0.894995 1.01463 0.0 
2.22312 0.363016 0.0 
-0.320562 0.726481 0.0 
-1.30188 2.41386 0.0 
0.43802 0.434693 0.0 
-0.761697 0.762024 0.0 
1.45688 -1.49591 0.0 
-0.65072 0.676835 0.0 
1.6097 -1.41509 0.0 
2.25768 0.399237 0.0 
1.85518 0.299709 0.0 
2.14618 0.290757 0.0 
2.25222 0.371677 0.0 
-1.93063 2.91367 0.0 
1.52717 0.319618 0.0 
1.67964 -1.62237 0.0 
1.35962 -0.439169 0.0 
1.63007 -1.54335 0.0 
-5 -0.764504 0.0 
-1.61377 2.62271 0.0 
1.73865 -1.57725 0.0 
-0.908306 1.23669 0.0 
1.60766 0.330292 0.0 
1.82509 -1.63054 0.0 
1.90521 0.312457 0.0 
1.98719 -1.6488 0.0 
-0.528791 0.39225 0.0 
1.94978 -2.39003 0.0 
-0.472559 0.718465 0.0 
-1.28058 2.26572 0.0 
0.881581 -0.556282 0.0 
2.26369 0.42542 0.0 
0.917309 -1.69962 0.0 
0.853954 -1.60945 0.0 
1.30086 -0.404316 0.0 
1.99565 -2.46852 0.0 
1.49445 -1.47573 0.0 
1.68285 0.863315 0.0 
2.03074 -2.37549 0.0 
2.52279 -0.506167 0.0 
2.56049 -1.76899 0.0 
-1.52889 2.56597 0.0 
2.81136 -0.570221 0.0 
1.3688 -1.46095 0.0 
1.29524 -0.373946 0.0 
-0.350504 0.671928 0.0 
-0.590282 0.564035 0.0 
-0.054366 2.16706 0.0 
1.50819 1.22548 0.0 
-0.548222 0.453941 0.0 
2.19936 -2.5207 0.0 
12.2704 -7 0.0 
1.6811 -1.36761 0.0 
-0.449261 0.559535 0.0 
0.537017 -0.527614 0.0 
-0.00733391 0.553304 0.0 
0.494109 -0.356396 0.0 
-0.7939 0.0827441 0.0 
0.39888 0.467333 0.0 
-1.04288 1.34095 0.0 
0.605019 1.02824 0.0 
0.847559 0.374727 0.0 
1.00336 0.618307 0.0 
2.1955 0.399186 0.0 
0.656973 0.401158 0.0 
-0.998431 2.73564 0.0 
[...]
<PointData>
  <DataArray type = "Float64" Name="VitesseP1" NumberOfComponents="3" format="ascii">
1 0 0.0 
1.06797 0 0.0 
1.02049 0 0.0 
1 0 0.0 
0.994493 0.0160047 0.0 
0.996841 0.0113054 0.0 
0.995393 0.0137993 0.0 
1.03743 -0.00550226 0.0 
1.03825 -0.0084593 0.0 
1.04183 -0.00807199 0.0 
0.997693 0.0122469 0.0 
0.985906 0.0726636 0.0 
0.99653 0.0116377 0.0 
0.996739 0.0124369 0.0 
0.998867 0.0122525 0.0 
0.992132 0.217562 0.0 
1.0185 0.0543614 0.0 
1.05147 -0.0256384 0.0 
0.998794 0.0116658 0.0 
0.99492 0.0147289 0.0 
1.055 -0.0264691 0.0 
0.99876 0.0136193 0.0 
1.15794 -0.0232653 0.0 
1.04899 0.0111644 0.0 
1.06069 -0.000971335 0.0 
0.998715 0.0132063 0.0 
0.944334 0.00875735 0.0 
1.06085 -0.0214589 0.0 
0.0597655 0.0142751 0.0 
0.988515 0.0316324 0.0 
1.14016 0.0648188 0.0 
1.10931 0.140659 0.0 
0.998765 0.0126102 0.0 
1.02959 -0.0211136 0.0 
0.941179 0.0123372 0.0 
1.00524 0.0308912 0.0 
0.936864 -0.0512486 0.0 
1.08161 -0.000435518 0.0 
1.05335 0.00942645 0.0 
1.05211 -0.014693 0.0 
1.05465 -0.00442683 0.0 
0.926701 0.151326 0.0 
1.07247 -0.00988799 0.0 
1.12352 0.00355122 0.0 
1.06556 0.00674648 0.0 
1.06115 -0.0132693 0.0 
1.05775 0.033161 0.0 
1.05337 0.0243484 0.0 
1.19412 0.016371 0.0 
0.939364 0.0356394 0.0 
1.03705 -0.00513317 0.0 
1.00249 0.0126434 0.0 
0.999673 0.0178307 0.0 
1.03656 -0.00697203 0.0 
1.03764 0.242406 0.0 
0.0497951 -0.00490388 0.0 
1.03794 -0.0045912 0.0 
1.00271 0.0130511 0.0 
0.998972 0.0159006 0.0 
1.17341 -0.0291322 0.0 
0.23233 -0.0415778 0.0 
1.00233 0.0133114 0.0 
1.08793 0.0619667 0.0 
1.12191 0.118817 0.0 
0.640081 -0.0157531 0.0 
1.05908 -0.0263117 0.0 
1.10903 -0.0269139 0.0 
0.55867 0.134473 0.0 
0.862589 0.0853123 0.0 
1.18317 -0.0327352 0.0 
1.19929 -0.0346986 0.0 
1.06436 -0.0110378 0.0 
0.998918 0.0143618 0.0 
1 0 0.0 
0.404999 -0.0475281 0.0 
1.0021 0.0128805 0.0 
0.96799 0.0106771 0.0 
0.998942 0.0147174 0.0 
1.00174 0.0120465 0.0 
1.16913 0.0293901 0.0 
1.03622 0.0193908 0.0 
0.76028 -0.0393065 0.0 
0.949558 0.262565 0.0 
1.17286 0.112038 0.0 
0.945981 0.0142883 0.0 
0.969807 0.00897754 0.0 
1.00202 0.0124826 0.0 
1.06022 -0.0245347 0.0 
1.14226 0.0947218 0.0 
0.999006 0.015069 0.0 
1.0421 0.0239091 0.0 
1.04587 -0.0147036 0.0 
1.09473 0.0780773 0.0 
0.935312 0.0699782 0.0 
1.12433 0.122939 0.0 
0.999743 0.0131647 0.0 
1.00225 0.0112738 0.0 
0.108493 -0.137705 0.0 
0.999097 0.0143056 0.0 
1.19187 -0.233932 0.0 
0.943886 0.0230444 0.0 
0.918731 -0.0882958 0.0 
0.915689 -0.0744322 0.0 
1.04969 -0.00431476 0.0 
0.924209 -0.0782009 0.0 
0.966977 -0.00808969 0.0 
1.04585 -0.0165672 0.0 
1.06592 -0.00268236 0.0 
1.19708 0.0782829 0.0 
1.03836 -0.0163369 0.0 
0.919937 -0.0885292 0.0 
0.954634 -0.0035764 0.0 
0.153674 -0.0285661 0.0 
1.20015 0.0227603 0.0 
1.0438 -0.00434851 0.0 
1.03694 -0.0181184 0.0 
1.03487 -0.00982646 0.0 
1.04252 -0.0118376 0.0 
1.03386 -0.0129082 0.0 
1.03182 -0.0172904 0.0 
1.16438 0.182411 0.0 
1.03725 -0.00724002 0.0 
0.877128 0.125803 0.0 
0.99895 0.0213165 0.0 
1.03635 -0.0204272 0.0 
1.03677 0.00457929 0.0 
1.0408 -0.0225807 0.0 
1.19641 0.0862685 0.0 
1.06071 -0.014233 0.0 
0.999917 0.0184649 0.0 
1.03817 -0.00914996 0.0 
1.02747 0.0478248 0.0 
1.00063 0.0142294 0.0 
1.03902 -0.0203936 0.0 
1.05626 -0.00957969 0.0 
1.08729 0.18799 0.0 
1.06766 -0.0721672 0.0 
0.2702 -0.022547 0.0 
1.05423 0.0217679 0.0 
0.458531 -0.0379068 0.0 
0.483202 -0.0404838 0.0 
0.977495 0.196051 0.0 
0.0676899 0.0121085 0.0 
1.03794 -0.0143306 0.0 
1.03046 -0.160084 0.0 
1.04476 0.0477208 0.0 
1.1386 0.11839 0.0 
0.998674 0.0199053 0.0 
0.103088 0.013729 0.0 
0.998826 0.0189859 0.0 
0.411972 -0.0161892 0.0 
0.99867 0.0149688 0.0 
1.04745 0.0258793 0.0 
0.984966 0.024818 0.0 
0.973226 0.0345449 0.0 
1.05167 0.0369431 0.0 
0.998495 0.0162267 0.0 
0.922699 -0.0794427 0.0 
0.98399 0.0212142 0.0 
1.06321 0.020167 0.0 
0.981385 0.0256555 0.0 
1.03355 0.0312655 0.0 
1.03985 -0.170557 0.0 
0.998773 0.0165274 0.0 
1.05959 -0.00651359 0.0 
0.920098 -0.0858082 0.0 
1.0327 0.0696926 0.0 
1.04122 -4.32288e-05 0.0 
1.06524 -0.00667581 0.0 
0.916434 -0.0816268 0.0 
1.13176 0.110326 0.0 
0.999077 0.0173261 0.0 
0.92755 -0.07264 0.0 
0.922091 -0.0825065 0.0 
0.998561 0.012996 0.0 
1.0407 -0.00523149 0.0 
0.999314 0.0198297 0.0 
0.938761 0.15126 0.0 
1.12711 0.046604 0.0 
0.998611 0.015328 0.0 
0.636561 0.110307 0.0 
1.00584 0.0350291 0.0 
0.863162 0.0453265 0.0 
0.998786 0.0197063 0.0 
0.999124 0.0192399 0.0 
1.04752 -0.00631078 0.0 
0.973744 0.0241064 0.0 
1.06771 -0.0351009 0.0 
1.14137 0.19825 0.0 
1.10841 -0.127945 0.0 
0.878672 -0.0278594 0.0 
0.93803 0.0518575 0.0 
0.874864 0.0163355 0.0 
1.04508 -0.00703035 0.0 
0.923995 -0.0730154 0.0 
0.933099 -0.0624977 0.0 
0.918784 -0.0741719 0.0 
0.5836 0.110634 0.0 
1.05295 -0.00690734 0.0 
0.103273 0.0172867 0.0 
1.03784 0.26429 0.0 
1.04108 -0.0170963 0.0 
1.0468 -0.0108717 0.0 
1.05164 -0.0138608 0.0 
0.0802231 0.0161413 0.0 
1.14164 0.101533 0.0 
1.04668 -0.0284223 0.0 
1.04995 0.0162206 0.0 
0.941221 0.00858966 0.0 
1.03371 -0.017155 0.0 
1.03496 -0.0133125 0.0 
0.998655 0.0160973 0.0 
1.04359 -0.0333513 0.0 
0.89874 -0.06551 0.0 
0.99894 0.0152329 0.0 
0.909681 -0.0856467 0.0 
0.297653 -0.0520636 0.0 
0.887859 -0.0838262 0.0 
0.932419 0.0160865 0.0 
1.19958 0.0377885 0.0 
1.04494 0.018917 0.0 
0.361428 -0.0565 0.0 
1.09446 0.0857688 0.0 
0.998457 0.0163062 0.0 
1.01886 0.222388 0.0 
0.951329 0.176914 0.0 
0.998766 0.0177814 0.0 
0.999206 0.0161937 0.0 
0.998649 0.018597 0.0 
0.63044 -0.0308222 0.0 
0.96757 0.0251483 0.0 
0.965261 0.0226515 0.0 
0.415181 0.135655 0.0 
0.976182 0.0410199 0.0 
0.940239 -0.0443399 0.0 
0.302099 0.101515 0.0 
0.375728 0.184344 0.0 
1.06339 0.296178 0.0 
1.06881 -0.102076 0.0 
0.967027 0.0195757 0.0 
1.13477 0.0466333 0.0 
0.393753 -0.0481249 0.0 
1.00055 0.0119697 0.0 
0.990105 0.0339755 0.0 
1.00938 0.0355701 0.0 
0.983526 0.0312774 0.0 
0.999504 0.0169382 0.0 
0.918536 0.0213167 0.0 
1.05834 -0.13088 0.0 
0.918785 0.0755495 0.0 
0.908527 0.13175 0.0 
1.0403 0.0138642 0.0 
1.19008 0.0351469 0.0 
0.829711 0.11652 0.0 
1.05403 -0.0329462 0.0 
0.593407 0.0207705 0.0 
0.975572 0.0435998 0.0 
0.932629 -0.0502453 0.0 
0.702817 0.194434 0.0 
0.899548 0.338668 0.0 
0.987067 0.0264974 0.0 
1.06354 -0.013272 0.0 
0.967056 0.0861445 0.0 
1.11222 -0.0752272 0.0 
1.10837 0.0604075 0.0 
0.982892 0.0329247 0.0 
0.956108 0.012121 0.0 
1.19111 0.0409012 0.0 
0.999042 0.0233374 0.0 
1.07759 0.283145 0.0 
1.16223 0.0320129 0.0 
1.12258 -0.076152 0.0 
0.993996 0.0102975 0.0 
1.01706 0.0467793 0.0 
0.937227 0.00747666 0.0 
0.997179 0.00861598 0.0 
1.01884 0.283673 0.0 
1.05569 -0.0213921 0.0 
1.00312 0.150289 0.0 
0.924971 -0.0065889 0.0 
1.03381 0.0284511 0.0 
0.992607 0.0290253 0.0 
1.03496 0.0155593 0.0 
0.96267 0.025831 0.0 
0.984776 0.0284843 0.0 
1.03292 0.00764411 0.0 
1 0 0.0 
1.06521 -0.00593385 0.0 
0.984485 0.0301328 0.0 
1.04016 -0.000186845 0.0 
0.987347 0.0282888 0.0 
1.03573 -0.030582 0.0 
1.03701 -0.0269523 0.0 
1.19345 0.0958969 0.0 
0.984583 0.0265074 0.0 
1.12823 -0.0807375 0.0 
0.914764 -0.145945 0.0 
1.06352 -0.00168805 0.0 
1.12717 -0.113419 0.0 
1.14368 0.0486478 0.0 
0.931152 0.0273158 0.0 
1.03736 0.00367622 0.0 
0.995831 0.0174835 0.0 
0.979439 0.0394091 0.0 
0.983911 0.011294 0.0 
0.995492 0.0105564 0.0 
0.990071 0.0214125 0.0 
1.09143 0.166822 0.0 
0.948432 0.0245932 0.0 
0.998633 0.0179606 0.0 
1.14279 0.0561803 0.0 
1.16129 0.0358708 0.0 
0.998382 0.0171972 0.0 
0.935854 -0.0555076 0.0 
0.999035 0.0144668 0.0 
1.04258 -0.127747 0.0 
0.994915 0.0180772 0.0 
1.00026 0.0112149 0.0 
0.980503 0.0285402 0.0 
0.988602 0.0285396 0.0 
0.996443 0.0216999 0.0 
0.991673 0.0304059 0.0 
0.882179 -0.105617 0.0 
1 0 0.0 
1 0 0.0 
1.02926 0.0471678 0.0 
0.995077 0.0243591 0.0 
0.346688 -0.0413636 0.0 
0.141816 0.00731877 0.0 
1.11693 0.21576 0.0 
0.965147 -0.0424436 0.0 
1.20067 0.0714063 0.0 
1.14157 0.0603541 0.0 
0.994336 0.0187865 0.0 
1.13878 0.0685726 0.0 
0.991645 0.0248551 0.0 
0.948453 -0.164047 0.0 
1 0 0.0 
1.15242 0.0307278 0.0 
0.961641 0.189471 0.0 
0.992603 0.0233684 0.0 
1.14287 -0.0835311 0.0 
1.04413 0.0132411 0.0 
1.04526 0.0148178 0.0 
0.982616 0.0292161 0.0 
0.995279 0.0115555 0.0 
1.12876 0.231065 0.0 
1.1167 0.0890098 0.0 
0.994077 0.0198442 0.0 
0.262394 -0.0130266 0.0 
0.958321 0.00121611 0.0 
0.992 0.0123483 0.0 
0.995205 0.0122726 0.0 
0.448524 -0.0255442 0.0 
0.985325 0.023428 0.0 
0.948718 -0.0292358 0.0 
0.953408 -0.00678865 0.0 
0.0925989 0.000607052 0.0 
1 0 0.0 
1.0569 0 0.0 
1.00764 0.16554 0.0 
1.11937 -0.145036 0.0 
0.93191 0.0357866 0.0 
1.11238 -0.129202 0.0 
0.420236 -0.0290656 0.0 
0.0762684 0.0122742 0.0 
0.989521 0.0130746 0.0 
0.98547 0.0219405 0.0 
0.987295 0.0162214 0.0 
0.991551 0.0145192 0.0 
1.10947 -0.172641 0.0 
1.06482 -0.0102793 0.0 
1.07928 0.145898 0.0 
1.1194 0.0818305 0.0 
0.340628 -0.0329317 0.0 
0.956605 0.0790284 0.0 
1.00042 0.0205626 0.0 
1.11155 0.256154 0.0 
0.972231 0.0325665 0.0 
1.06403 -0.014034 0.0 
0.959235 0.037853 0.0 
1.06322 -0.00677384 0.0 
0.567835 -0.0445534 0.0 
0.0818316 0.0121977 0.0 
0.0720688 0.00013128 0.0 
0.392723 -0.0397701 0.0 
0.999758 0.0125933 0.0 
0.072776 0.00385587 0.0 
1.06015 -0.00208158 0.0 
1.16329 -0.0394312 0.0 
1.06529 -0.0048647 0.0 
1 0 0.0 
0.999619 0.0162498 0.0 
1.064 0.000660259 0.0 
0.978868 0.0321117 0.0 
0.103581 0.0146968 0.0 
1.05971 0.00467162 0.0 
0.0986951 0.0102757 0.0 
1.05723 0.0119111 0.0 
0.920233 0.0279837 0.0 
1.03662 0.00142721 0.0 
0.957279 0.05821 0.0 
0.999788 0.021549 0.0 
1.19435 -0.108238 0.0 
0.762714 -0.0447307 0.0 
1.03963 -0.0306871 0.0 
1.04297 -0.0357671 0.0 
1.07284 -0.0415222 0.0 
1.0476 0.0098445 0.0 
1.06434 -0.0123634 0.0 
1.1821 0.01261 0.0 
1.03618 0.0128822 0.0 
1.23952 0.091721 0.0 
1.03472 0.026299 0.0 
0.999821 0.0173021 0.0 
1.15568 0.11464 0.0 
1.06209 -0.019049 0.0 
0.978307 -0.0424968 0.0 
0.947679 0.0739998 0.0 
0.944143 0.0373041 0.0 
1.01405 0.0428737 0.0 
1.1275 -0.00264329 0.0 
0.928808 0.0326394 0.0 
1.01368 -0.00244808 0.0 
1.05164 0 0.0 
1.06031 -0.00290468 0.0 
0.933754 0.0543333 0.0 
1.13906 -0.162699 0.0 
0.935566 0.160212 0.0 
1.10381 -0.194286 0.0 
0.952745 -0.0199778 0.0 
1.08775 0.25005 0.0 
0.983094 0.0275227 0.0 
1.08639 0.103558 0.0 
0.794816 0.100667 0.0 
1.17538 0.102828 0.0 
0.563285 -0.0350886 0.0 
1.07773 0.18519 0.0 
1.0039 0.0216502 0.0 
1.05677 0.0145904 0.0 
1.04206 0.00785946 0.0 
1.05012 -0.00135166 0.0 
1.04778 -0.000340468 0.0 
0.125913 -0.00815096 0.0 
1.04032 0.00134115 0.0 
0.0714621 0.0205677 0.0 
1.09696 -0.0606121 0.0 
1.00388 0.0354401 0.0 
1.04457 0.00849853 0.0 
1 0 0.0 
0.983087 0.026357 0.0 
1.19384 0.0916099 0.0 
0.824601 -0.0664613 0.0 
0.999474 0.0156857 0.0 
0.991552 0.0391716 0.0 
1.05217 0.00950641 0.0 
1.05628 0.00486241 0.0 
0.939791 0.188829 0.0 
0.784217 0.130007 0.0 
1.00415 0.0186986 0.0 
1.16284 0.147064 0.0 
0.999849 0.242908 0.0 
0.998992 0.0122798 0.0 
0.986044 0.0291665 0.0 
1.05376 0.000774787 0.0 
0.937774 0.124528 0.0 
0.25847 -0.0172971 0.0 
1.0528 0.00285292 0.0 
0.174902 0.0991639 0.0 
1.05304 -0.00125613 0.0 
1.07364 -0.0421627 0.0 
1.01529 0.0480676 0.0 
1.12659 -0.0598675 0.0 
1.04916 0.00176124 0.0 
0.956916 -0.00618552 0.0 
0.37573 0.0141709 0.0 
1.06115 -0.0224841 0.0 
0.946472 -0.00138402 0.0 
0.999675 0.0153823 0.0 
1.05861 -0.0272305 0.0 
0.941726 0.0657158 0.0 
1.19472 -0.0424324 0.0 
0.354432 -0.0387253 0.0 
0.686858 -0.0508135 0.0 
0.940997 -0.00456122 0.0 
0.964597 0.272067 0.0 
0.252479 0.0478542 0.0 
0.997033 0.315621 0.0 
1.01427 -0.0349244 0.0 
1.07735 -0.0417473 0.0 
0.801087 -0.0212665 0.0 
0.358355 0.116336 0.0 
1.10008 0.068603 0.0 
0.998613 0.0123697 0.0 
0.646619 -0.0180585 0.0 
0.239631 0.00316404 0.0 
0.914802 -0.0433663 0.0 
0.8404 -0.0555135 0.0 
1.02914 0.0431247 0.0 
0.998711 0.0119428 0.0 
1.02602 -0.0976355 0.0 
1.11862 -0.0309041 0.0 
1.16756 0.0188721 0.0 
0.0853872 0.0121562 0.0 
0.936362 -0.0575544 0.0 
1.03341 0.0370364 0.0 
1.06419 -0.00797932 0.0 
0.938013 -0.00894539 0.0 
0.144504 -0.0020031 0.0 
0.998723 0.0128811 0.0 
1.1673 0.0232317 0.0 
1.05779 -0.0265791 0.0 
0.963757 0.215816 0.0 
1.04949 0.0106905 0.0 
1.06531 0.000189965 0.0 
1.06519 0.00488872 0.0 
0.954476 0.0376082 0.0 
1.05946 -0.0244028 0.0 
0.998838 0.0140791 0.0 
0.952144 0.00709974 0.0 
1.14212 -0.0298848 0.0 
1.05123 0.0204946 0.0 
0.989268 0.00742066 0.0 
0.953349 0.0153614 0.0 
0.998873 0.0142703 0.0 
1.05556 0.0054322 0.0 
1.0412 -0.00378716 0.0 
1.05975 -0.0217427 0.0 
0.990434 0.00907656 0.0 
1.0196 0.0427914 0.0 
0.998845 0.0134849 0.0 
1.04792 -0.0263356 0.0 
1.06159 0.0189187 0.0 
0.0612396 0.000915964 0.0 
0.0646961 0.0222344 0.0 
1.06489 0.0147759 0.0 
0.905616 -0.0564116 0.0 
0.895796 -0.0455807 0.0 
0.884361 0.119449 0.0 
0.999298 0.0142324 0.0 
0.998781 0.0141751 0.0 
0.96268 -0.0131828 0.0 
0.9649 -0.0019402 0.0 
1.03422 0.0224372 0.0 
0.963767 0.234684 0.0 
1.06686 0.151359 0.0 
1.02765 -0.0450344 0.0 
0.0718473 0.00614294 0.0 
1.15571 0.0203145 0.0 
1.06714 0.137152 0.0 
0.998651 0.0136814 0.0 
1.01527 0.0331801 0.0 
1.10698 -0.00802238 0.0 
0.982843 0.0210325 0.0 
0.934424 0.046473 0.0 
1.03358 -0.0285133 0.0 
0.973352 0.037456 0.0 
0.941111 0.108961 0.0 
0.934092 0.0589843 0.0 
0.872172 -0.0637992 0.0 
0.962812 0.00715968 0.0 
0.795801 -0.0466006 0.0 
1.00088 0.0184853 0.0 
1.0292 0.0436308 0.0 
0.95369 -0.0101673 0.0 
0.961474 -0.000987041 0.0 
0.922548 0.0342498 0.0 
1.10156 0.248374 0.0 
0.972297 0.00613377 0.0 
0.942929 0.291589 0.0 
0.945343 0.0328369 0.0 
0.9752 0.226187 0.0 
0.850436 0.285851 0.0 
0.995146 0.00764125 0.0 
1.00206 0 0.0 
0.99878 0.0123222 0.0 
0.977239 0.0016032 0.0 
0.896843 0.153368 0.0 
0.139326 0.00835869 0.0 
1.01029 0.0440961 0.0 
0.980756 0.00722297 0.0 
0.999374 0.0127212 0.0 
0.915987 -0.0718216 0.0 
0.916563 0.0330406 0.0 
1.19914 -0.0305525 0.0 
0.998648 0.0126042 0.0 
0.999848 0.0870094 0.0 
0.780306 -0.0948782 0.0 
1.0352 -0.0231404 0.0 
0.93615 0.0637137 0.0 
0.995197 0.0164185 0.0 
0.944373 0.0275966 0.0 
0.990954 0.0202399 0.0 
0.0773688 0.0184499 0.0 
0.778153 -0.086612 0.0 
1.03781 -0.00584815 0.0 
1.14379 0.0896843 0.0 
1.14838 -0.0508225 0.0 
0.997678 0.0108571 0.0 
0.982064 0.0187454 0.0 
1.00562 0.201587 0.0 
1.114 0.156711 0.0 
0.585961 0.0953484 0.0 
0.951092 0.188993 0.0 
0.981443 0.019109 0.0 
0.378503 -0.0550482 0.0 
0.982419 0.0220454 0.0 
0.997245 0.012938 0.0 
1.00022 0.0199216 0.0 
0.331253 -0.0553819 0.0 
0.283494 -0.048707 0.0 
0.981568 0.0303155 0.0 
0.340031 0.0580427 0.0 
1.1924 0.0872239 0.0 
1.00955 0.0435423 0.0 
0.980716 0.0325741 0.0 
0.999596 0.0198109 0.0 
0.977916 0.0113065 0.0 
0.930243 0.0687572 0.0 
0.976598 0.025834 0.0 
0.852108 0.285077 0.0 
0.556617 -0.064607 0.0 
0.306215 -0.0439384 0.0 
0.968167 0.0135792 0.0 
0.974784 0.0122102 0.0 
1.05431 0.20427 0.0 
0.392471 -0.0611799 0.0 
0.939801 0.0210554 0.0 
1.03679 -0.0374828 0.0 
0.983065 0.24561 0.0 
0.999152 0.0138656 0.0 
0.922486 0.0818582 0.0 
0.972205 0.0311614 0.0 
0.930085 0.143267 0.0 
0.961681 0.155778 0.0 
1.00891 0.254961 0.0 
0.77436 -0.0589227 0.0 
0.937429 -0.052297 0.0 
1.10849 0.0617072 0.0 
0.470753 0.0935729 0.0 
0.926576 -0.059621 0.0 
0.188745 -0.0281772 0.0 
0.899151 -0.0128233 0.0 
0.751356 0.135758 0.0 
0.915323 -0.0663925 0.0 
0.922392 -0.0561113 0.0 
0.61606 0.165139 0.0 
1.04865 0.0066212 0.0 
0.940853 0.173322 0.0 
0.879722 -0.0048794 0.0 
0.928496 -0.0536899 0.0 
1.03627 -0.00767258 0.0 
0.342127 0.0414946 0.0 
1.03501 -0.0101058 0.0 
0.866094 0.00744696 0.0 
0.898625 0.217114 0.0 
1.04231 -0.00103133 0.0 
0.906896 -0.0880579 0.0 
0.923224 0.182513 0.0 
0.373851 -0.0609819 0.0 
1.12194 0.0651927 0.0 
1.03623 0.169549 0.0 
0.831578 0.380783 0.0 
1.1019 0.164114 0.0 
1.06465 0.25943 0.0 
1.00559 -0.061419 0.0 
0.741236 -0.106594 0.0 
0.97771 0.0334349 0.0 
0.526519 0.0619134 0.0 
0.918661 -0.0526087 0.0 
1.03928 0.066001 0.0 
0.277922 -0.0343406 0.0 
1.04396 0.263334 0.0 
1.05288 0.0396591 0.0 
0.878982 0.10531 0.0 
1.00497 0.0221693 0.0 
0.892722 0.0669978 0.0 
0.226468 -0.0256597 0.0 
0.853277 0.0764375 0.0 
0.949382 0.0369523 0.0 
0.947232 0.00395198 0.0 
1.17114 -0.0362985 0.0 
0.763913 0.335327 0.0 
0.847636 0.0891509 0.0 
1.02746 0.0730253 0.0 
1.08177 -0.0945743 0.0 
0.921329 -0.0468403 0.0 
1.04039 0.271581 0.0 
0.96469 0.0169711 0.0 
0.995421 0.0405963 0.0 
0.91022 0.0770658 0.0 
0.924528 0.112662 0.0 
0.910631 0.0354835 0.0 
1.00902 0.0279838 0.0 
0.91977 0.105983 0.0 
0.917414 0.220772 0.0 
0.999085 0.0129457 0.0 
1.09123 -0.0697926 0.0 
0.388005 -0.0613896 0.0 
1.05439 0.250751 0.0 
0.966118 0.202908 0.0 
0.807095 0.151253 0.0 
0.826986 0.038236 0.0 
0.886252 0.0298915 0.0 
1.04225 0.304987 0.0 
0.999467 0.0176419 0.0 
1.12439 0.138825 0.0 
1.03308 0.226126 0.0 
0.886733 -0.0482975 0.0 
0.92287 -0.00186213 0.0 
0.858369 0.158407 0.0 
0.910892 0.0207183 0.0 
0.885148 0.0149057 0.0 
0.932542 -0.0460088 0.0 
0.934147 0.207168 0.0 
0.995475 0.0306578 0.0 
0.999455 0.0151473 0.0 
0.187331 -0.0245537 0.0 
0.165225 -0.0192942 0.0 
0.912854 0.02783 0.0 
0.527534 0.153694 0.0 
1.03546 -0.00894008 0.0 
0.921864 -0.0163199 0.0 
0.977935 -0.000888269 0.0 
0.902581 0.0765315 0.0 
0.841949 0.00677455 0.0 
1.08107 -0.0662306 0.0 
0.954975 0.0080604 0.0 
0.975487 0.00921417 0.0 
1.08429 0.26735 0.0 
0.312824 -0.052585 0.0 
0.930668 0.300144 0.0 
0.972943 0.00273032 0.0 
0.988501 0.0543664 0.0 
1.06883 -0.2289 0.0 
0.968914 0.00477118 0.0 
0.961657 0.0126475 0.0 
0.997655 0.0134992 0.0 
1.03574 -0.0096821 0.0 
0.801455 0.108069 0.0 
0.90441 0.0184536 0.0 
0.99092 0.00556393 0.0 
1.02834 -0.182287 0.0 
0.995079 0.0156887 0.0 
0.935424 0.0241921 0.0 
0.812652 0.168 0.0 
0.949889 -0.00841643 0.0 
0.99809 0.0103351 0.0 
0.938652 0.00479449 0.0 
0.189128 0.128556 0.0 
0.943768 -0.00832005 0.0 
1.06229 -0.0092196 0.0 
0.953972 0.28856 0.0 
0.124336 -0.00199149 0.0 
1.10151 0.254577 0.0 
0.98801 0.0150196 0.0 
0.928244 -0.132433 0.0 
0.968797 0.00193103 0.0 
0.959557 0.00923131 0.0 
0.959793 0.00462564 0.0 
0.544509 0.134878 0.0 
0.961827 0.00194174 0.0 
0.955883 -0.0135065 0.0 
0.653359 0.184181 0.0 
1.03274 -0.0134726 0.0 
1.03248 0.0461344 0.0 
0.997665 0.265688 0.0 
0.98088 0.0210283 0.0 
0.975272 0.0292198 0.0 
0.964608 0.00402417 0.0 
0.89344 0.0129705 0.0 
0.958826 -0.0178134 0.0 
0.119134 0.0032904 0.0 
0.968649 -0.000139277 0.0 
1.05653 0.0171019 0.0 
0.876226 0.167966 0.0 
0.996431 0.0122626 0.0 
1.06099 0.0266174 0.0 
1.05645 0.0946769 0.0 
1.1016 -0.0698384 0.0 
1.09557 0.104095 0.0 
0.976485 -0.00286207 0.0 
0.876891 0.182911 0.0 
0.996557 0.0147108 0.0 
0.996903 0.0113366 0.0 
0.89025 -0.0411701 0.0 
0.978533 0.0259956 0.0 
1.16403 -0.226477 0.0 
0.723505 0.00794789 0.0 
0.941992 0.0416269 0.0 
1.01757 0.302411 0.0 
0.908688 0.353106 0.0 
0.839123 0.132049 0.0 
1.15818 0.0723631 0.0 
0.154316 0.134171 0.0 
1.0188 0.289347 0.0 
1.06692 0.265462 0.0 
1.03651 -0.0068965 0.0 
0.938797 0.0942 0.0 
0.0509878 0.0145453 0.0 
1.17622 0.145612 0.0 
0.977605 0.032093 0.0 
0.910016 0.121979 0.0 
1.12737 0.219038 0.0 
0.851476 0.12424 0.0 
-0.0351553 -0.0204435 0.0 
0.978707 0.0302282 0.0 
0.925105 0.0736235 0.0 
0.747788 0.140263 0.0 
0.97956 0.0269693 0.0 
0.911813 0.150022 0.0 
0.995809 0.0127499 0.0 
0.903146 0.101425 0.0 
0.97905 0.0281387 0.0 
0.853998 0.0556209 0.0 
0.831174 0.0225072 0.0 
0.9043 0.164082 0.0 
0.998711 0.0116137 0.0 
0.968843 -0.00462377 0.0 
0.98003 0.0253094 0.0 
0.999001 0.0179061 0.0 
0.962677 -0.00465981 0.0 
0.961629 -0.00834221 0.0 
0.966139 -0.00411347 0.0 
0.938526 -0.0413746 0.0 
0.925877 0.058136 0.0 
0.926484 0.0880747 0.0 
1.03745 -0.00208561 0.0 
0.989557 0.0323322 0.0 
1.05959 0.0279896 0.0 
0.999093 0.0148022 0.0 
1.07533 -0.00532389 0.0 
1.00463 0.0799908 0.0 
0.949675 0.0133665 0.0 
0.976771 0.0272964 0.0 
1.04985 -0.160563 0.0 
1.10223 0.242442 0.0 
1.12477 0.23057 0.0 
0.933763 -0.0321398 0.0 
0.998988 0.014325 0.0 
0.951163 0.0110224 0.0 
0.996303 0.0138512 0.0 
0.979536 0.005495 0.0 
1.05249 0.0107575 0.0 
1.04877 -0.171271 0.0 
0.120318 0.00826681 0.0 
0.668774 0.136619 0.0 