<VTKFile type="UnstructuredGrid" version="0.1" byte_order="LittleEndian">
  <UnstructuredGrid>
    <Piece NumberOfPoints="9712" NumberOfCells="19403">
      <Points>
        <DataArray type = "Float64" NumberOfComponents="3" format="ascii">
-5 -7 0.0 
15.5 -7 0.0 
15.5 7 0.0 
-5 7 0.0 
-1.6546 1.77742 0.0 
-2.13867 1.86504 0.0 
-1.83467 1.79143 0.0 
1.47969 -2.21179 0.0 
1.36003 -2.38618 0.0 
1.4346 -2.45048 0.0 
-2.04214 1.94165 0.0 
-0.20425 1.17338 0.0 
-2.07648 1.81911 0.0 
-2.00827 1.89081 0.0 
-2.05492 1.98872 0.0 
0.192693 0.536219 0.0 
0.154285 1.75648 0.0 
1.1379 -1.62057 0.0 
-2.11226 1.96977 0.0 
-1.74119 1.75327 0.0 
1.14499 -1.58184 0.0 
-1.94373 2.37229 0.0 
1.50619 -0.664239 0.0 
1.99658 -1.76705 0.0 
1.7229 -1.18344 0.0 
-1.97759 2.52091 0.0 
-0.768046 0.387136 0.0 
1.32657 -1.43969 0.0 
1.90142 0.24821 0.0 
-0.93264 1.51038 0.0 
1.09557 0.967223 0.0 
0.627111 0.757352 0.0 
-2.05707 2.31394 0.0 
1.34027 -2.45136 0.0 
-0.725097 0.397516 0.0 
-0.666094 2.30428 0.0 
-0.73829 -0.279965 0.0 
1.73336 -1.08822 0.0 
1.88466 -1.24421 0.0 
1.50539 -1.23752 0.0 
1.65978 -1.30759 0.0 
-0.0409718 0.542603 0.0 
1.6005 -1.1227 0.0 
1.78439 -0.941488 0.0 
1.86015 -1.54236 0.0 
1.49308 -1.40058 0.0 
2.34892 -1.47149 0.0 
2.13832 -1.3246 0.0 
1.73061 0.751302 0.0 
-0.580328 0.526903 0.0 
1.51013 -2.1595 0.0 
-1.65424 3.45779 0.0 
-1.51397 2.46352 0.0 
1.42773 -2.17867 0.0 
0.304353 0.497878 0.0 
2.24628 0.228293 0.0 
1.51258 -2.27933 0.0 
-1.60346 3.44299 0.0 
-1.71408 2.36227 0.0 
2.17421 0.530405 0.0 
2.42 0.316451 0.0 
-1.63642 3.31911 0.0 
2.53942 -0.995036 0.0 
0.750003 0.810439 0.0 
2.04736 0.40918 0.0 
1.19615 -1.50641 0.0 
2.13474 0.494063 0.0 
0.547924 0.306722 0.0 
-0.2059 0.361394 0.0 
2.2127 0.547693 0.0 
1.41442 -0.597105 0.0 
1.52233 -1.46252 0.0 
-1.84114 2.53924 0.0 
-5 -2.53894 0.0 
2.32127 0.371156 0.0 
-1.69186 3.33379 0.0 
-0.964779 0.566136 0.0 
-1.81311 2.48387 0.0 
-1.78557 3.38304 0.0 
1.48278 0.914136 0.0 
2.51531 -1.89689 0.0 
1.20982 -0.330514 0.0 
0.408434 0.319657 0.0 
0.95023 0.60993 0.0 
-0.752349 0.440796 0.0 
-0.998248 0.564019 0.0 
-1.73165 3.36299 0.0 
1.24353 -1.49063 0.0 
0.942095 0.817189 0.0 
-1.77816 2.47096 0.0 
2.48183 -1.95479 0.0 
1.33574 -1.77854 0.0 
0.823335 1.12085 0.0 
-0.36308 0.598468 0.0 
0.745466 0.783414 0.0 
-1.88344 2.8521 0.0 
-1.79794 3.52221 0.0 
3.0087 0.272815 0.0 
-1.81486 2.66014 0.0 
0.375911 -0.403668 0.0 
-0.68323 0.487288 0.0 
-0.34187 -0.274923 0.0 
-0.293875 -0.201368 0.0 
1.61018 -1.767 0.0 
-0.448275 -0.347267 0.0 
-1.08687 0.352015 0.0 
1.29257 -1.76345 0.0 
1.67658 -1.49551 0.0 
1.19193 0.533009 0.0 
1.21582 -1.91654 0.0 
-0.36438 -0.346225 0.0 
-0.92534 0.330346 0.0 
2.3836 0.287756 0.0 
1.68841 0.639887 0.0 
1.59001 -1.89458 0.0 
1.14818 -1.92143 0.0 
1.28996 -2.19426 0.0 
1.37603 -1.8763 0.0 
1.23834 -2.09141 0.0 
1.11702 -2.06287 0.0 
0.691829 0.463808 0.0 
1.46523 -2.03459 0.0 
-0.123547 0.424486 0.0 
-1.3311 2.12174 0.0 
1.08169 -1.90074 0.0 
1.87975 -2.15971 0.0 
1.10131 -1.78593 0.0 
1.13722 0.534683 0.0 
1.42465 -1.59031 0.0 
-1.45435 2.47344 0.0 
1.41998 -1.98207 0.0 
0.463917 1.8787 0.0 
-1.72896 2.89571 0.0 
1.12419 -1.84975 0.0 
1.59054 -1.20634 0.0 
0.46124 0.621002 0.0 
0.806438 -1.00204 0.0 
2.1804 0.349761 0.0 
2.21142 -1.6418 0.0 
1.10152 -0.274558 0.0 
2.23388 0.387302 0.0 
0.137769 0.567007 0.0 
1.88736 0.267391 0.0 
1.26821 -1.94267 0.0 
0.21033 -0.605707 0.0 
2.61094 -1.50046 0.0 
0.819837 0.743337 0.0 
-1.4303 2.07799 0.0 
1.82013 0.322126 0.0 
-1.47649 2.2099 0.0 
1.15745 -0.274223 0.0 
-1.81198 2.24994 0.0 
2.34337 -1.67775 0.0 
-1.13329 1.37877 0.0 
-0.828215 1.05292 0.0 
2.46752 -1.53452 0.0 
-1.69915 2.18529 0.0 
-0.404416 -0.286271 0.0 
-1.23501 1.31766 0.0 
2.11757 -1.50659 0.0 
-1.08535 1.28274 0.0 
2.58548 -1.70783 0.0 
0.24729 -0.572345 0.0 
-1.66963 2.25319 0.0 
1.58322 -1.62308 0.0 
-0.367923 -0.306026 0.0 
0.391521 1.44485 0.0 
1.88977 -2.46319 0.0 
1.5943 -1.53613 0.0 
-0.357143 -0.23651 0.0 
0.82621 0.80563 0.0 
-1.59261 2.31884 0.0 
-0.47244 -0.307516 0.0 
-0.40334 -0.326688 0.0 
-2.00063 2.11543 0.0 
1.55514 -1.95078 0.0 
-1.40431 2.26352 0.0 
-0.0265928 0.573714 0.0 
1.17093 1.10579 0.0 
-1.77907 2.22111 0.0 
0.682788 0.329642 0.0 
-0.54475 2.15572 0.0 
-0.288592 0.289433 0.0 
-1.43199 2.16349 0.0 
-1.45029 2.25134 0.0 
1.5535 -1.79992 0.0 
-1.06406 1.08381 0.0 
1.72954 1.44966 0.0 
0.582806 0.515814 0.0 
0.582876 -0.679913 0.0 
1.32351 -0.355916 0.0 
-0.47505 0.577092 0.0 
-0.371167 0.227715 0.0 
1.52235 -1.8529 0.0 
-0.429822 -0.244811 0.0 
-0.53237 -0.24648 0.0 
-0.393983 -0.210364 0.0 
0.652895 0.317361 0.0 
1.55812 -1.70765 0.0 
1.63021 0.325622 0.0 
0.442731 0.358729 0.0 
1.22925 -1.85192 0.0 
1.43517 -1.79082 0.0 
1.39317 -1.6984 0.0 
1.62965 0.295952 0.0 
0.905462 0.793465 0.0 
1.04036 -1.64811 0.0 
2.1131 -1.72466 0.0 
-0.743911 0.369492 0.0 
1.14427 -1.99314 0.0 
1.26033 -2.0209 0.0 
-1.70955 2.07308 0.0 
0.910023 -1.62976 0.0 
-0.313059 -0.0954838 0.0 
-1.77334 2.3988 0.0 
-0.311958 -0.24042 0.0 
2.53315 0.325608 0.0 
-0.273728 -0.226719 0.0 
-0.646401 0.379627 0.0 
1.52426 0.616074 0.0 
2.21703 -1.79499 0.0 
2.71108 0.312216 0.0 
0.759924 1.093 0.0 
-1.69271 2.12368 0.0 
0.255794 0.540969 0.0 
0.0534699 0.562158 0.0 
-1.5679 2.22408 0.0 
-1.66906 2.45165 0.0 
-1.51895 2.09449 0.0 
2.16948 0.408238 0.0 
-0.818806 0.680638 0.0 
-0.826868 0.642087 0.0 
0.519855 0.276992 0.0 
-0.716682 1.18602 0.0 
-0.649974 -0.148775 0.0 
0.457368 0.256619 0.0 
0.517407 0.248194 0.0 
0.327129 0.39802 0.0 
0.533249 -0.878832 0.0 
-0.870735 0.634904 0.0 
1.19219 1.07557 0.0 
2.35922 0.366028 0.0 
-1.66911 3.66723 0.0 
-0.857603 1.54934 0.0 
-0.379189 2.30131 0.0 
-0.941007 1.36523 0.0 
-1.58662 2.49682 0.0 
-0.545297 0.352587 0.0 
0.327944 -0.744683 0.0 
-0.312756 0.524741 0.0 
-0.107843 0.506233 0.0 
2.13378 -2.36584 0.0 
1.52689 0.686953 0.0 
-0.119983 0.327909 0.0 
1.02161 -1.53072 0.0 
1.51507 0.39695 0.0 
-0.674484 1.02605 0.0 
-0.564724 -0.148435 0.0 
0.409388 0.290913 0.0 
0.252349 0.30842 0.0 
-1.09282 1.45998 0.0 
1.45674 -1.54484 0.0 
-0.266777 0.782169 0.0 
0.91327 -0.874389 0.0 
1.01208 1.13309 0.0 
-0.897136 1.35063 0.0 
-0.846484 0.489353 0.0 
1.47563 0.663768 0.0 
-1.22282 2.05021 0.0 
0.348906 0.416714 0.0 
1.41913 0.964648 0.0 
0.933289 -0.839038 0.0 
-1.85066 1.40221 0.0 
0.142477 1.99435 0.0 
-0.717809 0.341194 0.0 
-2.21177 1.41584 0.0 
0.396571 0.350929 0.0 
1.25171 -1.60721 0.0 
0.736798 0.393502 0.0 
-0.661427 0.19031 0.0 
2.18751 -2.32769 0.0 
-1.00908 1.6747 0.0 
2.21416 -2.07269 0.0 
-0.779194 0.642011 0.0 
-1.02312 1.3939 0.0 
2.08809 -2.24876 0.0 
-5 -4.48794 0.0 
1.61792 -1.46215 0.0 
-0.974627 1.38947 0.0 
1.81166 -2.48446 0.0 
-1.03635 1.47474 0.0 
0.869004 -1.74424 0.0 
0.956579 -1.78598 0.0 
1.07495 0.540689 0.0 
-1.08005 1.37763 0.0 
0.914755 -0.803058 0.0 
0.611759 -0.305322 0.0 
1.70043 -1.41356 0.0 
0.75708 -0.631542 0.0 
1.21215 1.01979 0.0 
-0.586902 0.440014 0.0 
1.9251 -2.56336 0.0 
-1.58261 1.91091 0.0 
-0.746541 1.26087 0.0 
-1.49915 1.13657 0.0 
-1.46675 0.971536 0.0 
-1.05881 0.930935 0.0 
0.71826 0.415078 0.0 
-0.701697 0.526982 0.0 
-1.56194 2.05157 0.0 
1.15988 0.991244 0.0 
1.38676 0.949615 0.0 
-1.61697 2.02689 0.0 
1.13748 -0.357331 0.0 
-1.8456 2.04561 0.0 
0.253686 -0.756334 0.0 
-1.53603 1.86509 0.0 
-1.43465 0.924137 0.0 
-1.00273 1.27416 0.0 
-1.03063 1.5132 0.0 
-1.32483 1.94769 0.0 
-0.965552 1.61445 0.0 
-0.239859 -0.245939 0.0 
-5 3.01776 0.0 
-5 -0.248741 0.0 
0.517491 1.87079 0.0 
-1.18776 1.8875 0.0 
2.27458 0.36201 0.0 
1.9794 0.331487 0.0 
0.503086 0.510306 0.0 
1.26387 -0.370702 0.0 
1.24483 0.550197 0.0 
1.12871 0.979556 0.0 
-1.48659 1.83259 0.0 
1.0672 0.958366 0.0 
-1.16856 1.61214 0.0 
-0.218637 -0.230696 0.0 
-5 1.81431 0.0 
1.37014 1.04658 0.0 
0.0950623 0.557621 0.0 
-1.23613 1.67303 0.0 
0.953731 -0.709843 0.0 
2.07568 -1.85385 0.0 
2.10836 -1.82014 0.0 
-0.994952 1.33552 0.0 
-1.86986 1.52312 0.0 
0.515812 0.447542 0.0 
0.842446 0.992035 0.0 
-1.42353 1.8223 0.0 
2.091 0.354014 0.0 
-0.937663 0.401428 0.0 
-1.69305 1.41997 0.0 
-1.82465 1.55127 0.0 
2.15192 0.384657 0.0 
-1.17972 1.37998 0.0 
-0.718866 -0.0130647 0.0 
-0.927867 0.290435 0.0 
1.56509 0.300406 0.0 
-5 -3.04052 0.0 
9.98027 -7 0.0 
0.176009 0.694641 0.0 
0.597997 -0.559941 0.0 
-0.546583 0.4849 0.0 
0.602022 -0.657834 0.0 
2.17737 0.379672 0.0 
1.89809 0.287017 0.0 
-1.58883 1.35796 0.0 
-1.2284 1.37063 0.0 
-1.43937 1.35342 0.0 
-1.59664 1.47263 0.0 
0.577431 -0.368705 0.0 
1.5263 -1.51093 0.0 
0.479666 0.796509 0.0 
0.894995 1.01463 0.0 
2.22312 0.363016 0.0 
-0.320562 0.726481 0.0 
-1.30188 2.41386 0.0 
0.43802 0.434693 0.0 
-0.761697 0.762024 0.0 
1.45688 -1.49591 0.0 
-0.65072 0.676835 0.0 
1.6097 -1.41509 0.0 
2.25768 0.399237 0.0 
1.85518 0.299709 0.0 
2.14618 0.290757 0.0 
2.25222 0.371677 0.0 
-1.93063 2.91367 0.0 
1.52717 0.319618 0.0 
1.67964 -1.62237 0.0 
1.35962 -0.439169 0.0 
1.63007 -1.54335 0.0 
-5 -0.764504 0.0 
-1.61377 2.62271 0.0 
1.73865 -1.57725 0.0 
-0.908306 1.23669 0.0 
1.60766 0.330292 0.0 
1.82509 -1.63054 0.0 
1.90521 0.312457 0.0 
1.98719 -1.6488 0.0 
-0.528791 0.39225 0.0 
1.94978 -2.39003 0.0 
-0.472559 0.718465 0.0 
-1.28058 2.26572 0.0 
0.881581 -0.556282 0.0 
2.26369 0.42542 0.0 
0.917309 -1.69962 0.0 
0.853954 -1.60945 0.0 
1.30086 -0.404316 0.0 
1.99565 -2.46852 0.0 
1.49445 -1.47573 0.0 
1.68285 0.863315 0.0 
2.03074 -2.37549 0.0 
2.52279 -0.506167 0.0 
2.56049 -1.76899 0.0 
-1.52889 2.56597 0.0 
2.81136 -0.570221 0.0 
1.3688 -1.46095 0.0 
1.29524 -0.373946 0.0 
-0.350504 0.671928 0.0 
-0.590282 0.564035 0.0 
-0.054366 2.16706 0.0 
1.50819 1.22548 0.0 
-0.548222 0.453941 0.0 
2.19936 -2.5207 0.0 
12.2704 -7 0.0 
1.6811 -1.36761 0.0 
-0.449261 0.559535 0.0 
0.537017 -0.527614 0.0 
-0.00733391 0.553304 0.0 
0.494109 -0.356396 0.0 
-0.7939 0.0827441 0.0 
0.39888 0.467333 0.0 
-1.04288 1.34095 0.0 
0.605019 1.02824 0.0 
0.847559 0.374727 0.0 
1.00336 0.618307 0.0 
2.1955 0.399186 0.0 
0.656973 0.401158 0.0 
-0.998431 2.73564 0.0 
[...]
<PointData>
  <DataArray type = "Float64" Name="VitesseP1" NumberOfComponents="3" format="ascii">
1 0 0.0 
1.09375 0 0.0 
1.03753 0 0.0 
1 0 0.0 
0.994695 0.0155006 0.0 
0.996959 0.0108759 0.0 
0.99556 0.0133279 0.0 
1.0432 -0.00326854 0.0 
1.04529 -0.00414648 0.0 
1.05096 -0.00366389 0.0 
0.997796 0.01179 0.0 
0.986871 0.0723685 0.0 
0.996655 0.0112041 0.0 
0.99687 0.011981 0.0 
0.998939 0.0117905 0.0 
0.992391 0.218172 0.0 
1.02027 0.0530089 0.0 
1.04971 -0.0259233 0.0 
0.998861 0.0112198 0.0 
0.995098 0.0142473 0.0 
1.05524 -0.0269011 0.0 
0.998919 0.0130786 0.0 
1.16087 -0.0264231 0.0 
1.04687 0.0124417 0.0 
1.06474 -0.0020427 0.0 
0.998893 0.0126564 0.0 
0.944626 0.00854711 0.0 
1.06394 -0.0219749 0.0 
0.0652067 0.000541675 0.0 
0.988946 0.0310506 0.0 
1.1439 0.068502 0.0 
1.11037 0.142553 0.0 
0.9989 0.0121022 0.0 
1.03495 -0.0173712 0.0 
0.94147 0.0121362 0.0 
1.00559 0.0298714 0.0 
0.936964 -0.0514924 0.0 
1.08583 -0.00192744 0.0 
1.05762 0.00876469 0.0 
1.05493 -0.0156752 0.0 
1.05784 -0.00505527 0.0 
0.927014 0.15155 0.0 
1.07615 -0.0112534 0.0 
1.12755 0.00133925 0.0 
1.06934 0.00720584 0.0 
1.06445 -0.0137519 0.0 
1.06474 0.03487 0.0 
1.0587 0.0245419 0.0 
1.20297 0.0315556 0.0 
0.939639 0.0354728 0.0 
1.04183 -0.00328909 0.0 
1.00247 0.0119528 0.0 
0.999906 0.0171621 0.0 
1.04125 -0.00486841 0.0 
1.03779 0.243276 0.0 
0.045264 -0.00370954 0.0 
1.04508 -0.00219852 0.0 
1.00269 0.0123375 0.0 
0.999161 0.0153027 0.0 
1.15741 0.00514358 0.0 
0.099666 0.00255078 0.0 
1.00241 0.0126061 0.0 
1.09805 0.0611471 0.0 
1.12343 0.121173 0.0 
0.527644 0.00605726 0.0 
1.06155 -0.0268445 0.0 
1.05478 0.00652163 0.0 
0.555474 0.134645 0.0 
0.862852 0.0853488 0.0 
1.18275 0.000676189 0.0 
1.20335 -0.0382102 0.0 
1.06794 -0.0113247 0.0 
0.999115 0.0137741 0.0 
1 0 0.0 
0.275895 -0.00523518 0.0 
1.00218 0.0122028 0.0 
0.968192 0.0104193 0.0 
0.999136 0.0141292 0.0 
1.00178 0.0114192 0.0 
1.1761 0.0370916 0.0 
1.03838 0.0245711 0.0 
0.751346 -0.040673 0.0 
0.948266 0.26313 0.0 
1.17376 0.116063 0.0 
0.946261 0.0140796 0.0 
0.970002 0.00871691 0.0 
1.00208 0.0118334 0.0 
1.06294 -0.0250501 0.0 
1.14438 0.0981469 0.0 
0.999202 0.0144734 0.0 
1.04485 0.0289247 0.0 
1.04245 -0.0142347 0.0 
1.09782 0.0796272 0.0 
0.935619 0.0699086 0.0 
1.12572 0.125335 0.0 
0.999954 0.0125575 0.0 
1.00215 0.0106594 0.0 
-0.0173323 -0.149295 0.0 
0.999315 0.0136955 0.0 
1.19133 -0.23465 0.0 
0.944159 0.0228486 0.0 
0.918862 -0.0885365 0.0 
0.915629 -0.0746516 0.0 
1.04694 -0.00365695 0.0 
0.924492 -0.0784354 0.0 
0.96725 -0.00829871 0.0 
1.0421 -0.0162127 0.0 
1.06978 -0.00267194 0.0 
1.19654 0.0847126 0.0 
1.038 -0.0157205 0.0 
0.920202 -0.0887882 0.0 
0.954946 -0.00380032 0.0 
0.0650247 0.0095188 0.0 
1.20477 0.0385268 0.0 
1.04419 -0.0034408 0.0 
1.03641 -0.017583 0.0 
1.03879 -0.00750209 0.0 
1.04185 -0.0110939 0.0 
1.03589 -0.0114326 0.0 
1.03283 -0.0165335 0.0 
1.16368 0.184685 0.0 
1.0396 -0.00589027 0.0 
0.877393 0.125921 0.0 
0.999168 0.0206485 0.0 
1.03522 -0.0201763 0.0 
1.04197 0.00565961 0.0 
1.03723 -0.022588 0.0 
1.19615 0.0920837 0.0 
1.06154 -0.0142649 0.0 
1.00016 0.0177775 0.0 
1.0395 -0.00801594 0.0 
1.03023 0.0463512 0.0 
1.00079 0.0135686 0.0 
1.03698 -0.0202091 0.0 
1.05963 -0.0106229 0.0 
1.08775 0.189361 0.0 
1.06883 -0.0733468 0.0 
0.128103 0.00772968 0.0 
1.05488 0.0235488 0.0 
0.455947 -0.0391943 0.0 
0.367347 -0.00223757 0.0 
0.977811 0.196556 0.0 
0.0703034 -0.00669824 0.0 
1.03812 -0.0135124 0.0 
1.03088 -0.16071 0.0 
1.05259 0.0504577 0.0 
1.13996 0.121276 0.0 
0.99886 0.0192757 0.0 
0.0780605 0.00433661 0.0 
0.999041 0.0183468 0.0 
0.409222 -0.0170719 0.0 
0.998833 0.0144125 0.0 
1.04644 0.0283721 0.0 
0.985332 0.0243278 0.0 
0.973597 0.0341663 0.0 
1.05759 0.0394314 0.0 
0.998668 0.0156524 0.0 
0.922864 -0.0796768 0.0 
0.984327 0.02076 0.0 
1.06848 0.0211788 0.0 
0.981773 0.0251946 0.0 
1.03384 0.0353623 0.0 
1.0402 -0.171213 0.0 
0.998958 0.0159344 0.0 
1.05921 -0.0062452 0.0 
0.920286 -0.0860524 0.0 
1.03502 0.0692755 0.0 
1.04867 -0.00138995 0.0 
1.06832 -0.00665545 0.0 
0.916508 -0.0818561 0.0 
1.13345 0.113092 0.0 
0.999279 0.0167017 0.0 
0.927759 -0.0728733 0.0 
0.922328 -0.0827495 0.0 
0.998674 0.0125042 0.0 
1.04194 -0.00418435 0.0 
0.999544 0.0191594 0.0 
0.939094 0.151505 0.0 
1.13229 0.0496767 0.0 
0.998776 0.0147681 0.0 
0.631907 0.110721 0.0 
1.00624 0.0339495 0.0 
0.863418 0.0452921 0.0 
0.998998 0.0190621 0.0 
0.999346 0.018586 0.0 
1.04521 -0.00562193 0.0 
0.974133 0.0237129 0.0 
1.07386 -0.0425802 0.0 
1.14153 0.200135 0.0 
1.10906 -0.129119 0.0 
0.869438 -0.0309188 0.0 
0.938316 0.0517292 0.0 
0.875097 0.0162409 0.0 
1.04423 -0.00626163 0.0 
0.924108 -0.0732398 0.0 
0.933233 -0.0627234 0.0 
0.918823 -0.0743861 0.0 
0.579667 0.110948 0.0 
1.05024 -0.00644946 0.0 
0.112008 0.0168873 0.0 
1.03681 0.265187 0.0 
1.03938 -0.0166449 0.0 
1.04394 -0.0103084 0.0 
1.04869 -0.0136419 0.0 
0.0919325 0.0250363 0.0 
1.1435 0.104808 0.0 
1.04368 -0.0288534 0.0 
1.04788 0.0177617 0.0 
0.941519 0.00838488 0.0 
1.03402 -0.0164538 0.0 
1.03614 -0.0121523 0.0 
0.998786 0.0155435 0.0 
1.04083 -0.0341812 0.0 
0.898572 -0.065648 0.0 
0.999126 0.0146454 0.0 
0.909742 -0.0858773 0.0 
0.164549 -0.00749886 0.0 
0.88786 -0.0840726 0.0 
0.932714 0.0159066 0.0 
1.2024 0.0492363 0.0 
1.04385 0.021222 0.0 
0.241084 -0.0256142 0.0 
1.09712 0.0872277 0.0 
0.998613 0.0157404 0.0 
1.0191 0.223145 0.0 
0.951648 0.177272 0.0 
0.998966 0.0171658 0.0 
0.999415 0.0155708 0.0 
0.99882 0.0179898 0.0 
0.516054 0.000413713 0.0 
0.967765 0.0248865 0.0 
0.965466 0.022397 0.0 
0.413366 0.135804 0.0 
0.976729 0.0405911 0.0 
0.940202 -0.0445751 0.0 
0.300688 0.101444 0.0 
0.374605 0.184492 0.0 
1.06311 0.296984 0.0 
1.06919 -0.102928 0.0 
0.967224 0.0193155 0.0 
1.13993 0.0500676 0.0 
0.262446 -0.00430392 0.0 
1.00069 0.01124 0.0 
0.990562 0.0333568 0.0 
1.00976 0.0343351 0.0 
0.983974 0.0307663 0.0 
0.999731 0.0162856 0.0 
0.918836 0.0211706 0.0 
1.05879 -0.131571 0.0 
0.919089 0.0755222 0.0 
0.908823 0.131896 0.0 
1.04798 0.0143036 0.0 
1.19419 0.0461451 0.0 
0.829952 0.116633 0.0 
1.05594 -0.0336913 0.0 
0.548755 0.0226444 0.0 
0.975907 0.0432488 0.0 
0.93259 -0.0504619 0.0 
0.701113 0.194658 0.0 
0.898929 0.339013 0.0 
0.98744 0.0259693 0.0 
1.06603 -0.0133732 0.0 
0.967431 0.0860844 0.0 
1.11323 -0.076778 0.0 
1.11258 0.0625976 0.0 
0.983362 0.0324151 0.0 
0.956362 0.0118908 0.0 
1.1945 0.0510688 0.0 
0.999269 0.0226484 0.0 
1.07742 0.284057 0.0 
1.16894 0.0383303 0.0 
1.1237 -0.0778123 0.0 
0.994144 0.00991509 0.0 
1.01866 0.0445515 0.0 
0.937533 0.00727718 0.0 
0.997261 0.00826141 0.0 
1.01797 0.284457 0.0 
1.05509 -0.0215235 0.0 
0.998809 0.151768 0.0 
0.925203 -0.00678691 0.0 
1.0375 0.0334757 0.0 
0.992976 0.0283895 0.0 
1.03779 0.0179487 0.0 
0.962886 0.0255858 0.0 
0.985184 0.0279716 0.0 
1.0379 0.0086927 0.0 
1 0 0.0 
1.06909 -0.00610303 0.0 
0.984916 0.029615 0.0 
1.0467 -0.000602331 0.0 
0.98774 0.0277439 0.0 
1.03108 -0.0312747 0.0 
1.03338 -0.0273675 0.0 
1.19346 0.101091 0.0 
0.98497 0.0260096 0.0 
1.12937 -0.0824299 0.0 
0.913023 -0.146762 0.0 
1.06756 -0.00191589 0.0 
1.12779 -0.114972 0.0 
1.14862 0.0526806 0.0 
0.931441 0.0271541 0.0 
1.03705 0.00164346 0.0 
0.996037 0.0169333 0.0 
0.979975 0.0389366 0.0 
0.984172 0.0109315 0.0 
0.995533 0.0101892 0.0 
0.990113 0.0210522 0.0 
1.08886 0.168736 0.0 
0.948692 0.0243878 0.0 
0.998784 0.0173747 0.0 
1.14711 0.0601091 0.0 
1.16746 0.0420312 0.0 
0.998526 0.0166302 0.0 
0.930163 -0.057421 0.0 
0.99913 0.0139507 0.0 
1.04291 -0.128328 0.0 
0.995143 0.0175264 0.0 
1.00023 0.010837 0.0 
0.980921 0.0280754 0.0 
0.988989 0.0279777 0.0 
0.996696 0.0210715 0.0 
0.992059 0.0297833 0.0 
0.882224 -0.10587 0.0 
1 0 0.0 
1 0 0.0 
1.03218 0.0456857 0.0 
0.995396 0.0237053 0.0 
0.210768 0.000176723 0.0 
0.0586324 0.0110115 0.0 
1.11708 0.217313 0.0 
0.958615 -0.0456597 0.0 
1.20106 0.078532 0.0 
1.1456 0.064166 0.0 
0.99458 0.0182316 0.0 
1.1423 0.0721307 0.0 
0.99195 0.0242852 0.0 
0.948317 -0.164232 0.0 
1 0 0.0 
1.15927 0.0355288 0.0 
0.961952 0.189897 0.0 
0.992888 0.022795 0.0 
1.14389 -0.0854447 0.0 
1.0441 0.0149008 0.0 
1.04436 0.0166112 0.0 
0.983042 0.0287248 0.0 
0.995406 0.0111449 0.0 
1.12835 0.232558 0.0 
1.11925 0.0912084 0.0 
0.994337 0.0192765 0.0 
0.142208 0.00454645 0.0 
0.958602 0.000988304 0.0 
0.992189 0.0119403 0.0 
0.995336 0.0118494 0.0 
0.336674 0.00275668 0.0 
0.985675 0.0229444 0.0 
0.948531 -0.029492 0.0 
0.953747 -0.00701197 0.0 
0.0962371 -0.0106286 0.0 
1 0 0.0 
1.07132 0 0.0 
1.00815 0.166101 0.0 
1.12001 -0.146343 0.0 
0.932195 0.0356375 0.0 
1.11296 -0.130424 0.0 
0.303685 0.0022994 0.0 
0.0817767 -0.00387857 0.0 
0.989748 0.0126684 0.0 
0.985804 0.0214677 0.0 
0.987566 0.0157898 0.0 
0.991759 0.0140807 0.0 
1.10813 -0.173652 0.0 
1.06804 -0.010403 0.0 
1.08025 0.14718 0.0 
1.12229 0.084168 0.0 
0.206653 0.00284939 0.0 
0.956947 0.0789526 0.0 
1.00068 0.019837 0.0 
1.11129 0.25737 0.0 
0.972415 0.0322927 0.0 
1.06723 -0.0143084 0.0 
0.959474 0.0376327 0.0 
1.06699 -0.00710926 0.0 
0.456535 -0.00533116 0.0 
0.08119 0.00803055 0.0 
0.0709703 0.0135132 0.0 
0.266098 0.000597631 0.0 
0.999842 0.0120063 0.0 
0.0826846 0.00128105 0.0 
1.05995 -0.00172649 0.0 
1.15971 -0.0431693 0.0 
1.06831 -0.00478183 0.0 
1 0 0.0 
0.999857 0.015587 0.0 
1.06624 0.00103207 0.0 
0.979317 0.0316557 0.0 
0.0985302 0.00754255 0.0 
1.05971 0.00529431 0.0 
0.0784081 -0.000829993 0.0 
1.05694 0.0129124 0.0 
0.920526 0.0278449 0.0 
1.04344 0.000476971 0.0 
0.957567 0.0580477 0.0 
1.00004 0.0208385 0.0 
1.19581 -0.110389 0.0 
0.647075 -0.00746918 0.0 
1.03526 -0.031268 0.0 
1.04145 -0.0367792 0.0 
1.06818 -0.0450024 0.0 
1.0565 0.0102184 0.0 
1.0678 -0.0126494 0.0 
1.19171 0.0238209 0.0 
1.0429 0.0144234 0.0 
1.24769 0.0816222 0.0 
1.03558 0.030817 0.0 
1.00006 0.016623 0.0 
1.18252 0.106548 0.0 
1.06521 -0.0195027 0.0 
0.971497 -0.0457961 0.0 
0.948001 0.0739211 0.0 
0.944412 0.0371284 0.0 
1.01442 0.0409784 0.0 
1.13791 -0.000939048 0.0 
0.929097 0.0324916 0.0 
1.00547 -0.00639596 0.0 
1.0689 0 0.0 
1.064 -0.00330481 0.0 
0.934044 0.0542209 0.0 
1.13967 -0.163911 0.0 
0.935882 0.160481 0.0 
1.10266 -0.195093 0.0 
0.952633 -0.0202491 0.0 
1.08779 0.251197 0.0 
0.983501 0.027035 0.0 
1.08824 0.104746 0.0 
0.787205 0.101638 0.0 
1.17642 0.107277 0.0 
0.449969 -0.000986875 0.0 
1.07539 0.186779 0.0 
1.0042 0.020836 0.0 
1.0567 0.0157926 0.0 
1.04325 0.0091414 0.0 
1.04751 -0.000648536 0.0 
1.04616 0.000471088 0.0 
0.0642286 0.010776 0.0 
1.04232 0.00242967 0.0 
-0.0733848 0.0230125 0.0 
1.04377 -0.0326927 0.0 
1.00431 0.0344438 0.0 
1.04479 0.00978225 0.0 
1 0 0.0 
0.98348 0.0258761 0.0 
1.19414 0.0970162 0.0 
0.737235 -0.0310875 0.0 
0.999707 0.0150362 0.0 
0.992098 0.0385082 0.0 
1.04996 0.0105551 0.0 
1.05489 0.00560764 0.0 
0.940072 0.189186 0.0 
0.779064 0.130731 0.0 
1.0045 0.0178788 0.0 
1.14235 0.125996 0.0 
1.00001 0.243569 0.0 
0.999212 0.0117154 0.0 
0.986131 0.028813 0.0 
1.05119 0.00146319 0.0 
0.938123 0.12467 0.0 
0.14399 0.0226331 0.0 
1.05019 0.00363016 0.0 
0.173193 0.0989815 0.0 
1.05037 -0.000655962 0.0 
1.00083 -0.00671378 0.0 
1.01676 0.0461672 0.0 
1.11332 -0.0391054 0.0 
1.04701 0.00259002 0.0 
0.957237 -0.0064056 0.0 
0.335846 0.0136112 0.0 
1.06384 -0.0228776 0.0 
0.946794 -0.00160513 0.0 
0.999917 0.0147278 0.0 
1.06133 -0.0278396 0.0 
0.94203 0.0656202 0.0 
1.19823 -0.0457752 0.0 
0.231856 -0.00223595 0.0 
0.57816 -0.0106934 0.0 
0.941309 -0.00478418 0.0 
0.964701 0.272602 0.0 
0.250736 0.0479295 0.0 
0.996876 0.316165 0.0 
0.918703 -0.000403658 0.0 
1.07947 -0.0432345 0.0 
0.682046 0.00513184 0.0 
0.35673 0.116336 0.0 
1.10377 0.0704235 0.0 
0.998794 0.0118355 0.0 
0.533499 0.00514452 0.0 
0.131586 0.0473122 0.0 
0.914573 -0.043535 0.0 
0.732783 -0.0171956 0.0 
1.03237 0.0469494 0.0 
0.998842 0.0114489 0.0 
1.02644 -0.0981065 0.0 
1.11437 -0.0347667 0.0 
1.17707 0.025871 0.0 
0.0815023 0.0011211 0.0 
0.936472 -0.0577801 0.0 
1.03487 0.0439294 0.0 
1.06795 -0.00826418 0.0 
0.938281 -0.00917238 0.0 
0.0712997 0.00734759 0.0 
0.998878 0.0123568 0.0 
1.17554 0.0305477 0.0 
1.05963 -0.0270566 0.0 
0.963998 0.216302 0.0 
1.05322 0.0172381 0.0 
1.06958 0.00013041 0.0 
1.06973 0.00497044 0.0 
0.954726 0.0374036 0.0 
1.06164 -0.024818 0.0 
0.999017 0.0135157 0.0 
0.952426 0.00687708 0.0 
1.1382 -0.033792 0.0 
1.05616 0.0202609 0.0 
0.98946 0.0070941 0.0 
0.953605 0.0151376 0.0 
0.999061 0.0136951 0.0 
1.0594 0.00498992 0.0 
1.04184 -0.00518252 0.0 
1.06141 -0.0220381 0.0 
0.990624 0.0087237 0.0 
1.02281 0.0473379 0.0 
0.998932 0.0129931 0.0 
1.04484 -0.0266188 0.0 
1.06711 0.0193789 0.0 
0.0628592 0.0213566 0.0 
0.0513299 0.0114843 0.0 
1.07022 0.0153262 0.0 
0.905433 -0.0565744 0.0 
0.888215 -0.0480565 0.0 
0.878277 0.120829 0.0 
0.999523 0.013614 0.0 
0.998942 0.0136253 0.0 
0.963018 -0.0133627 0.0 
0.965162 -0.00216805 0.0 
1.03489 0.0272973 0.0 
0.963952 0.235187 0.0 
1.06771 0.152453 0.0 
1.03054 -0.0443887 0.0 
0.068649 0.00127819 0.0 
1.16428 0.0253727 0.0 
1.10394 0.146254 0.0 
0.998789 0.0131608 0.0 
1.01671 0.0370024 0.0 
1.11583 -0.00818309 0.0 
0.982946 0.0207176 0.0 
0.93471 0.0463401 0.0 
1.03047 -0.0293094 0.0 
0.973539 0.0371851 0.0 
0.941463 0.109039 0.0 
0.934387 0.0588842 0.0 
0.779406 -0.0286639 0.0 
0.963049 0.0069182 0.0 
0.788119 -0.0482382 0.0 
1.00116 0.0177439 0.0 
1.03202 0.0422567 0.0 
0.954024 -0.0103948 0.0 
0.96175 -0.00121381 0.0 
0.922839 0.0341169 0.0 
1.10083 0.249614 0.0 
0.972485 0.00587095 0.0 
0.941847 0.292116 0.0 
0.945608 0.0326504 0.0 
0.975415 0.226727 0.0 
0.849418 0.286229 0.0 
0.995264 0.00730325 0.0 
1.00069 0 0.0 
0.998872 0.0118495 0.0 
0.977409 0.0013359 0.0 
0.892565 0.154401 0.0 
0.131622 0.00883577 0.0 
1.01104 0.0426263 0.0 
0.980889 0.00693122 0.0 
0.999441 0.0122416 0.0 
0.915884 -0.0719933 0.0 
0.916856 0.032917 0.0 
1.19633 -0.0344232 0.0 
0.998776 0.0121079 0.0 
0.952034 0.0738066 0.0 
0.724931 -0.06585 0.0 
1.03341 -0.023308 0.0 
0.93645 0.0636232 0.0 
0.995401 0.0158946 0.0 
0.94464 0.0274051 0.0 
0.991214 0.0197315 0.0 
0.0807307 0.0127753 0.0 
0.716789 -0.0563675 0.0 
1.04481 -0.00236026 0.0 
1.15903 0.082976 0.0 
1.13652 -0.0194486 0.0 
0.997748 0.0104511 0.0 
0.982381 0.0183263 0.0 
1.00333 0.202731 0.0 
1.11475 0.158613 0.0 
0.58091 0.0957336 0.0 
0.951386 0.189382 0.0 
0.981758 0.0186959 0.0 
0.245073 -0.0149278 0.0 
0.98277 0.0215981 0.0 
0.997367 0.0124677 0.0 
1.00048 0.0192098 0.0 
0.190223 -0.0122765 0.0 
0.153146 -0.00202315 0.0 
0.982008 0.0298311 0.0 
0.336354 0.0581743 0.0 
1.19309 0.0928809 0.0 
1.01026 0.0421372 0.0 
0.981182 0.0320925 0.0 
0.999831 0.0191296 0.0 
0.978059 0.0110171 0.0 
0.930547 0.0686928 0.0 
0.976749 0.0255405 0.0 
0.852156 0.285344 0.0 
0.455083 -0.0220966 0.0 
0.177 -0.000682843 0.0 
0.968363 0.0133184 0.0 
0.974945 0.0119301 0.0 
1.05466 0.205282 0.0 
0.256771 -0.0181905 0.0 
0.940084 0.0208663 0.0 
1.03371 -0.0388957 0.0 
0.983222 0.2462 0.0 
0.99937 0.0132599 0.0 
0.922795 0.0818461 0.0 
0.972617 0.030775 0.0 
0.930408 0.14347 0.0 
0.957475 0.157053 0.0 
1.00903 0.255669 0.0 
0.672682 -0.0199294 0.0 
0.937465 -0.0525209 0.0 
1.11823 0.0598708 0.0 
0.467466 0.093808 0.0 
0.926563 -0.0598315 0.0 
0.0716774 0.011446 0.0 
0.899175 -0.012966 0.0 
0.746817 0.136332 0.0 
0.915227 -0.0665749 0.0 
0.922317 -0.0563113 0.0 
0.613086 0.165336 0.0 
1.04677 0.0076543 0.0 
0.94116 0.173641 0.0 
0.879834 -0.00499743 0.0 
0.928452 -0.0539005 0.0 
1.0414 -0.0049854 0.0 
0.338898 0.0415894 0.0 
1.03792 -0.00834292 0.0 
0.866283 0.00735168 0.0 
0.89635 0.217664 0.0 
1.05001 -0.000978513 0.0 
0.906773 -0.0882424 0.0 
0.919977 0.183403 0.0 
0.235764 -0.0190041 0.0 
1.13195 0.0626829 0.0 
1.03316 0.171129 0.0 
0.83075 0.380998 0.0 
1.10259 0.16577 0.0 
1.06374 0.26051 0.0 
0.919264 -0.0309077 0.0 
0.687126 -0.0795758 0.0 
0.977862 0.0331423 0.0 
0.518669 0.0621693 0.0 
0.918539 -0.052798 0.0 
1.04824 0.0676157 0.0 
0.134809 0.00325034 0.0 
1.04404 0.264201 0.0 
1.06023 0.0418786 0.0 
0.879253 0.105382 0.0 
1.00525 0.0213351 0.0 
0.893007 0.0669762 0.0 
0.0854695 0.0124677 0.0 
0.853531 0.0764644 0.0 
0.949641 0.0367615 0.0 
0.947531 0.00373439 0.0 
1.17443 -0.0395128 0.0 
0.763358 0.335597 0.0 
0.847887 0.0891979 0.0 
1.02952 0.0726544 0.0 
1.08232 -0.0956145 0.0 
0.921182 -0.0470305 0.0 
1.03955 0.272458 0.0 
0.9649 0.0167184 0.0 
0.995994 0.0398396 0.0 
0.910519 0.0770514 0.0 
0.924852 0.112752 0.0 
0.910924 0.0353745 0.0 
1.00926 0.0268547 0.0 
0.920085 0.106051 0.0 
0.917605 0.221122 0.0 
0.999294 0.0123656 0.0 
1.09228 -0.0711905 0.0 
0.252048 -0.0214516 0.0 
1.05322 0.251868 0.0 
0.966399 0.203381 0.0 
0.807334 0.151375 0.0 
0.827141 0.038214 0.0 
0.886535 0.0298076 0.0 
1.04206 0.305691 0.0 
0.999689 0.0169894 0.0 
1.1254 0.141081 0.0 
1.03331 0.226968 0.0 
0.886427 -0.04842 0.0 
0.923138 -0.00204939 0.0 
0.858592 0.158574 0.0 
0.911194 0.0205847 0.0 
0.885404 0.0148008 0.0 
0.93246 -0.046224 0.0 
0.934379 0.207541 0.0 
0.995896 0.0299185 0.0 
0.999687 0.0145069 0.0 
0.0659507 0.0143282 0.0 
0.0745873 0.00928832 0.0 
0.913151 0.0277042 0.0 
0.525509 0.15371 0.0 
1.0393 -0.0068128 0.0 
0.921826 -0.0165008 0.0 
0.97811 -0.00114999 0.0 
0.902874 0.0765241 0.0 
0.842039 0.00667322 0.0 
1.08229 -0.0675809 0.0 
0.955244 0.00783264 0.0 
0.975649 0.0089361 0.0 
1.08423 0.26838 0.0 
0.170609 -0.00412212 0.0 
0.930693 0.300546 0.0 
0.973136 0.00247278 0.0 
0.989311 0.05382 0.0 
1.06906 -0.229506 0.0 
0.969125 0.00451964 0.0 
0.961886 0.0124045 0.0 
0.997771 0.0130145 0.0 
1.03834 -0.00809599 0.0 
0.795066 0.109071 0.0 
0.904707 0.0183272 0.0 
0.990986 0.00523845 0.0 
1.02865 -0.182945 0.0 
0.995273 0.0151815 0.0 
0.93571 0.0240166 0.0 
0.809168 0.168521 0.0 
0.950215 -0.00864584 0.0 
0.998151 0.00993806 0.0 
0.938963 0.00458944 0.0 
0.188346 0.128496 0.0 
0.944064 -0.00855136 0.0 
1.06587 -0.00961817 0.0 
0.954029 0.289041 0.0 
0.0607089 0.00325296 0.0 
1.10141 0.25576 0.0 
0.988075 0.0146914 0.0 
0.878254 -0.111824 0.0 
0.969018 0.00168572 0.0 
0.959804 0.00899529 0.0 
0.960054 0.00439248 0.0 
0.54306 0.134828 0.0 
0.962089 0.00170934 0.0 
0.956206 -0.0137303 0.0 
0.650938 0.184349 0.0 
1.035 -0.0119191 0.0 
1.03551 0.0446406 0.0 
0.996439 0.266417 0.0 
0.981213 0.0206067 0.0 
0.975704 0.0288072 0.0 
0.964846 0.00378383 0.0 
0.893707 0.0128522 0.0 
0.959152 -0.0180269 0.0 
0.112021 0.000795298 0.0 
0.96888 -0.000379168 0.0 
1.06135 0.0170984 0.0 
0.876458 0.168163 0.0 
0.996536 0.0118326 0.0 
1.06713 0.0280064 0.0 
1.05847 0.0953089 0.0 
1.10263 -0.0713282 0.0 
1.09748 0.105533 0.0 
0.976675 -0.00311424 0.0 
0.877103 0.183136 0.0 
0.996714 0.0142072 0.0 
0.997004 0.0109179 0.0 
0.88995 -0.0412985 0.0 
0.978915 0.0255694 0.0 
1.16416 -0.227266 0.0 
0.645118 0.017284 0.0 
0.942267 0.0414653 0.0 
1.01748 0.303057 0.0 
0.907932 0.353507 0.0 
0.839358 0.132172 0.0 
1.16104 0.0772361 0.0 
0.153804 0.134007 0.0 
1.01807 0.290063 0.0 
1.06617 0.266439 0.0 
1.04008 -0.00522231 0.0 
0.939134 0.094216 0.0 
0.0461999 0.00629398 0.0 
1.17648 0.148698 0.0 
0.97805 0.0316549 0.0 
0.910319 0.122098 0.0 
1.12661 0.220642 0.0 
0.851712 0.124346 0.0 
-0.0429971 -0.0179942 0.0 
0.979132 0.0297825 0.0 
0.92541 0.0735821 0.0 
0.743594 0.140791 0.0 
0.979956 0.0265253 0.0 
0.912102 0.150222 0.0 
0.995953 0.0123013 0.0 
0.903442 0.101483 0.0 
0.979452 0.0276961 0.0 
0.854248 0.0556129 0.0 
0.831298 0.0224432 0.0 
0.904569 0.164307 0.0 
0.998819 0.0111426 0.0 
0.969091 -0.00484897 0.0 
0.98041 0.0248677 0.0 
0.999206 0.0172786 0.0 
0.962959 -0.00487969 0.0 
0.961942 -0.00855036 0.0 
0.966402 -0.00433645 0.0 
0.93844 -0.0416044 0.0 
0.926172 0.0580491 0.0 
0.926801 0.0880788 0.0 
1.0424 -0.000659066 0.0 
0.989991 0.0317311 0.0 
1.06595 0.0291059 0.0 
0.999306 0.0141899 0.0 
1.0793 -0.00673312 0.0 
1.00595 0.0797366 0.0 
0.949947 0.0131498 0.0 
0.977179 0.0268808 0.0 
1.05027 -0.161261 0.0 
1.10118 0.243774 0.0 
1.12476 0.232043 0.0 
0.933506 -0.0323354 0.0 
0.999197 0.0137248 0.0 
0.951436 0.0108021 0.0 
0.996457 0.0133672 0.0 
0.97968 0.00521093 0.0 
1.05668 0.0102809 0.0 
1.04911 -0.171971 0.0 