<VTKFile type="UnstructuredGrid" version="0.1" byte_order="LittleEndian">
  <UnstructuredGrid>
    <Piece NumberOfPoints="9712" NumberOfCells="19403">
      <Points>
        <DataArray type = "Float64" NumberOfComponents="3" format="ascii">
-5 -7 0.0 
15.5 -7 0.0 
15.5 7 0.0 
-5 7 0.0 
-1.6546 1.77742 0.0 
-2.13867 1.86504 0.0 
-1.83467 1.79143 0.0 
1.47969 -2.21179 0.0 
1.36003 -2.38618 0.0 
1.4346 -2.45048 0.0 
-2.04214 1.94165 0.0 
-0.20425 1.17338 0.0 
-2.07648 1.81911 0.0 
-2.00827 1.89081 0.0 
-2.05492 1.98872 0.0 
0.192693 0.536219 0.0 
0.154285 1.75648 0.0 
1.1379 -1.62057 0.0 
-2.11226 1.96977 0.0 
-1.74119 1.75327 0.0 
1.14499 -1.58184 0.0 
-1.94373 2.37229 0.0 
1.50619 -0.664239 0.0 
1.99658 -1.76705 0.0 
1.7229 -1.18344 0.0 
-1.97759 2.52091 0.0 
-0.768046 0.387136 0.0 
1.32657 -1.43969 0.0 
1.90142 0.24821 0.0 
-0.93264 1.51038 0.0 
1.09557 0.967223 0.0 
0.627111 0.757352 0.0 
-2.05707 2.31394 0.0 
1.34027 -2.45136 0.0 
-0.725097 0.397516 0.0 
-0.666094 2.30428 0.0 
-0.73829 -0.279965 0.0 
1.73336 -1.08822 0.0 
1.88466 -1.24421 0.0 
1.50539 -1.23752 0.0 
1.65978 -1.30759 0.0 
-0.0409718 0.542603 0.0 
1.6005 -1.1227 0.0 
1.78439 -0.941488 0.0 
1.86015 -1.54236 0.0 
1.49308 -1.40058 0.0 
2.34892 -1.47149 0.0 
2.13832 -1.3246 0.0 
1.73061 0.751302 0.0 
-0.580328 0.526903 0.0 
1.51013 -2.1595 0.0 
-1.65424 3.45779 0.0 
-1.51397 2.46352 0.0 
1.42773 -2.17867 0.0 
0.304353 0.497878 0.0 
2.24628 0.228293 0.0 
1.51258 -2.27933 0.0 
-1.60346 3.44299 0.0 
-1.71408 2.36227 0.0 
2.17421 0.530405 0.0 
2.42 0.316451 0.0 
-1.63642 3.31911 0.0 
2.53942 -0.995036 0.0 
0.750003 0.810439 0.0 
2.04736 0.40918 0.0 
1.19615 -1.50641 0.0 
2.13474 0.494063 0.0 
0.547924 0.306722 0.0 
-0.2059 0.361394 0.0 
2.2127 0.547693 0.0 
1.41442 -0.597105 0.0 
1.52233 -1.46252 0.0 
-1.84114 2.53924 0.0 
-5 -2.53894 0.0 
2.32127 0.371156 0.0 
-1.69186 3.33379 0.0 
-0.964779 0.566136 0.0 
-1.81311 2.48387 0.0 
-1.78557 3.38304 0.0 
1.48278 0.914136 0.0 
2.51531 -1.89689 0.0 
1.20982 -0.330514 0.0 
0.408434 0.319657 0.0 
0.95023 0.60993 0.0 
-0.752349 0.440796 0.0 
-0.998248 0.564019 0.0 
-1.73165 3.36299 0.0 
1.24353 -1.49063 0.0 
0.942095 0.817189 0.0 
-1.77816 2.47096 0.0 
2.48183 -1.95479 0.0 
1.33574 -1.77854 0.0 
0.823335 1.12085 0.0 
-0.36308 0.598468 0.0 
0.745466 0.783414 0.0 
-1.88344 2.8521 0.0 
-1.79794 3.52221 0.0 
3.0087 0.272815 0.0 
-1.81486 2.66014 0.0 
0.375911 -0.403668 0.0 
-0.68323 0.487288 0.0 
-0.34187 -0.274923 0.0 
-0.293875 -0.201368 0.0 
1.61018 -1.767 0.0 
-0.448275 -0.347267 0.0 
-1.08687 0.352015 0.0 
1.29257 -1.76345 0.0 
1.67658 -1.49551 0.0 
1.19193 0.533009 0.0 
1.21582 -1.91654 0.0 
-0.36438 -0.346225 0.0 
-0.92534 0.330346 0.0 
2.3836 0.287756 0.0 
1.68841 0.639887 0.0 
1.59001 -1.89458 0.0 
1.14818 -1.92143 0.0 
1.28996 -2.19426 0.0 
1.37603 -1.8763 0.0 
1.23834 -2.09141 0.0 
1.11702 -2.06287 0.0 
0.691829 0.463808 0.0 
1.46523 -2.03459 0.0 
-0.123547 0.424486 0.0 
-1.3311 2.12174 0.0 
1.08169 -1.90074 0.0 
1.87975 -2.15971 0.0 
1.10131 -1.78593 0.0 
1.13722 0.534683 0.0 
1.42465 -1.59031 0.0 
-1.45435 2.47344 0.0 
1.41998 -1.98207 0.0 
0.463917 1.8787 0.0 
-1.72896 2.89571 0.0 
1.12419 -1.84975 0.0 
1.59054 -1.20634 0.0 
0.46124 0.621002 0.0 
0.806438 -1.00204 0.0 
2.1804 0.349761 0.0 
2.21142 -1.6418 0.0 
1.10152 -0.274558 0.0 
2.23388 0.387302 0.0 
0.137769 0.567007 0.0 
1.88736 0.267391 0.0 
1.26821 -1.94267 0.0 
0.21033 -0.605707 0.0 
2.61094 -1.50046 0.0 
0.819837 0.743337 0.0 
-1.4303 2.07799 0.0 
1.82013 0.322126 0.0 
-1.47649 2.2099 0.0 
1.15745 -0.274223 0.0 
-1.81198 2.24994 0.0 
2.34337 -1.67775 0.0 
-1.13329 1.37877 0.0 
-0.828215 1.05292 0.0 
2.46752 -1.53452 0.0 
-1.69915 2.18529 0.0 
-0.404416 -0.286271 0.0 
-1.23501 1.31766 0.0 
2.11757 -1.50659 0.0 
-1.08535 1.28274 0.0 
2.58548 -1.70783 0.0 
0.24729 -0.572345 0.0 
-1.66963 2.25319 0.0 
1.58322 -1.62308 0.0 
-0.367923 -0.306026 0.0 
0.391521 1.44485 0.0 
1.88977 -2.46319 0.0 
1.5943 -1.53613 0.0 
-0.357143 -0.23651 0.0 
0.82621 0.80563 0.0 
-1.59261 2.31884 0.0 
-0.47244 -0.307516 0.0 
-0.40334 -0.326688 0.0 
-2.00063 2.11543 0.0 
1.55514 -1.95078 0.0 
-1.40431 2.26352 0.0 
-0.0265928 0.573714 0.0 
1.17093 1.10579 0.0 
-1.77907 2.22111 0.0 
0.682788 0.329642 0.0 
-0.54475 2.15572 0.0 
-0.288592 0.289433 0.0 
-1.43199 2.16349 0.0 
-1.45029 2.25134 0.0 
1.5535 -1.79992 0.0 
-1.06406 1.08381 0.0 
1.72954 1.44966 0.0 
0.582806 0.515814 0.0 
0.582876 -0.679913 0.0 
1.32351 -0.355916 0.0 
-0.47505 0.577092 0.0 
-0.371167 0.227715 0.0 
1.52235 -1.8529 0.0 
-0.429822 -0.244811 0.0 
-0.53237 -0.24648 0.0 
-0.393983 -0.210364 0.0 
0.652895 0.317361 0.0 
1.55812 -1.70765 0.0 
1.63021 0.325622 0.0 
0.442731 0.358729 0.0 
1.22925 -1.85192 0.0 
1.43517 -1.79082 0.0 
1.39317 -1.6984 0.0 
1.62965 0.295952 0.0 
0.905462 0.793465 0.0 
1.04036 -1.64811 0.0 
2.1131 -1.72466 0.0 
-0.743911 0.369492 0.0 
1.14427 -1.99314 0.0 
1.26033 -2.0209 0.0 
-1.70955 2.07308 0.0 
0.910023 -1.62976 0.0 
-0.313059 -0.0954838 0.0 
-1.77334 2.3988 0.0 
-0.311958 -0.24042 0.0 
2.53315 0.325608 0.0 
-0.273728 -0.226719 0.0 
-0.646401 0.379627 0.0 
1.52426 0.616074 0.0 
2.21703 -1.79499 0.0 
2.71108 0.312216 0.0 
0.759924 1.093 0.0 
-1.69271 2.12368 0.0 
0.255794 0.540969 0.0 
0.0534699 0.562158 0.0 
-1.5679 2.22408 0.0 
-1.66906 2.45165 0.0 
-1.51895 2.09449 0.0 
2.16948 0.408238 0.0 
-0.818806 0.680638 0.0 
-0.826868 0.642087 0.0 
0.519855 0.276992 0.0 
-0.716682 1.18602 0.0 
-0.649974 -0.148775 0.0 
0.457368 0.256619 0.0 
0.517407 0.248194 0.0 
0.327129 0.39802 0.0 
0.533249 -0.878832 0.0 
-0.870735 0.634904 0.0 
1.19219 1.07557 0.0 
2.35922 0.366028 0.0 
-1.66911 3.66723 0.0 
-0.857603 1.54934 0.0 
-0.379189 2.30131 0.0 
-0.941007 1.36523 0.0 
-1.58662 2.49682 0.0 
-0.545297 0.352587 0.0 
0.327944 -0.744683 0.0 
-0.312756 0.524741 0.0 
-0.107843 0.506233 0.0 
2.13378 -2.36584 0.0 
1.52689 0.686953 0.0 
-0.119983 0.327909 0.0 
1.02161 -1.53072 0.0 
1.51507 0.39695 0.0 
-0.674484 1.02605 0.0 
-0.564724 -0.148435 0.0 
0.409388 0.290913 0.0 
0.252349 0.30842 0.0 
-1.09282 1.45998 0.0 
1.45674 -1.54484 0.0 
-0.266777 0.782169 0.0 
0.91327 -0.874389 0.0 
1.01208 1.13309 0.0 
-0.897136 1.35063 0.0 
-0.846484 0.489353 0.0 
1.47563 0.663768 0.0 
-1.22282 2.05021 0.0 
0.348906 0.416714 0.0 
1.41913 0.964648 0.0 
0.933289 -0.839038 0.0 
-1.85066 1.40221 0.0 
0.142477 1.99435 0.0 
-0.717809 0.341194 0.0 
-2.21177 1.41584 0.0 
0.396571 0.350929 0.0 
1.25171 -1.60721 0.0 
0.736798 0.393502 0.0 
-0.661427 0.19031 0.0 
2.18751 -2.32769 0.0 
-1.00908 1.6747 0.0 
2.21416 -2.07269 0.0 
-0.779194 0.642011 0.0 
-1.02312 1.3939 0.0 
2.08809 -2.24876 0.0 
-5 -4.48794 0.0 
1.61792 -1.46215 0.0 
-0.974627 1.38947 0.0 
1.81166 -2.48446 0.0 
-1.03635 1.47474 0.0 
0.869004 -1.74424 0.0 
0.956579 -1.78598 0.0 
1.07495 0.540689 0.0 
-1.08005 1.37763 0.0 
0.914755 -0.803058 0.0 
0.611759 -0.305322 0.0 
1.70043 -1.41356 0.0 
0.75708 -0.631542 0.0 
1.21215 1.01979 0.0 
-0.586902 0.440014 0.0 
1.9251 -2.56336 0.0 
-1.58261 1.91091 0.0 
-0.746541 1.26087 0.0 
-1.49915 1.13657 0.0 
-1.46675 0.971536 0.0 
-1.05881 0.930935 0.0 
0.71826 0.415078 0.0 
-0.701697 0.526982 0.0 
-1.56194 2.05157 0.0 
1.15988 0.991244 0.0 
1.38676 0.949615 0.0 
-1.61697 2.02689 0.0 
1.13748 -0.357331 0.0 
-1.8456 2.04561 0.0 
0.253686 -0.756334 0.0 
-1.53603 1.86509 0.0 
-1.43465 0.924137 0.0 
-1.00273 1.27416 0.0 
-1.03063 1.5132 0.0 
-1.32483 1.94769 0.0 
-0.965552 1.61445 0.0 
-0.239859 -0.245939 0.0 
-5 3.01776 0.0 
-5 -0.248741 0.0 
0.517491 1.87079 0.0 
-1.18776 1.8875 0.0 
2.27458 0.36201 0.0 
1.9794 0.331487 0.0 
0.503086 0.510306 0.0 
1.26387 -0.370702 0.0 
1.24483 0.550197 0.0 
1.12871 0.979556 0.0 
-1.48659 1.83259 0.0 
1.0672 0.958366 0.0 
-1.16856 1.61214 0.0 
-0.218637 -0.230696 0.0 
-5 1.81431 0.0 
1.37014 1.04658 0.0 
0.0950623 0.557621 0.0 
-1.23613 1.67303 0.0 
0.953731 -0.709843 0.0 
2.07568 -1.85385 0.0 
2.10836 -1.82014 0.0 
-0.994952 1.33552 0.0 
-1.86986 1.52312 0.0 
0.515812 0.447542 0.0 
0.842446 0.992035 0.0 
-1.42353 1.8223 0.0 
2.091 0.354014 0.0 
-0.937663 0.401428 0.0 
-1.69305 1.41997 0.0 
-1.82465 1.55127 0.0 
2.15192 0.384657 0.0 
-1.17972 1.37998 0.0 
-0.718866 -0.0130647 0.0 
-0.927867 0.290435 0.0 
1.56509 0.300406 0.0 
-5 -3.04052 0.0 
9.98027 -7 0.0 
0.176009 0.694641 0.0 
0.597997 -0.559941 0.0 
-0.546583 0.4849 0.0 
0.602022 -0.657834 0.0 
2.17737 0.379672 0.0 
1.89809 0.287017 0.0 
-1.58883 1.35796 0.0 
-1.2284 1.37063 0.0 
-1.43937 1.35342 0.0 
-1.59664 1.47263 0.0 
0.577431 -0.368705 0.0 
1.5263 -1.51093 0.0 
0.479666 0.796509 0.0 
0.894995 1.01463 0.0 
2.22312 0.363016 0.0 
-0.320562 0.726481 0.0 
-1.30188 2.41386 0.0 
0.43802 0.434693 0.0 
-0.761697 0.762024 0.0 
1.45688 -1.49591 0.0 
-0.65072 0.676835 0.0 
1.6097 -1.41509 0.0 
2.25768 0.399237 0.0 
1.85518 0.299709 0.0 
2.14618 0.290757 0.0 
2.25222 0.371677 0.0 
-1.93063 2.91367 0.0 
1.52717 0.319618 0.0 
1.67964 -1.62237 0.0 
1.35962 -0.439169 0.0 
1.63007 -1.54335 0.0 
-5 -0.764504 0.0 
-1.61377 2.62271 0.0 
1.73865 -1.57725 0.0 
-0.908306 1.23669 0.0 
1.60766 0.330292 0.0 
1.82509 -1.63054 0.0 
1.90521 0.312457 0.0 
1.98719 -1.6488 0.0 
-0.528791 0.39225 0.0 
1.94978 -2.39003 0.0 
-0.472559 0.718465 0.0 
-1.28058 2.26572 0.0 
0.881581 -0.556282 0.0 
2.26369 0.42542 0.0 
0.917309 -1.69962 0.0 
0.853954 -1.60945 0.0 
1.30086 -0.404316 0.0 
1.99565 -2.46852 0.0 
1.49445 -1.47573 0.0 
1.68285 0.863315 0.0 
2.03074 -2.37549 0.0 
2.52279 -0.506167 0.0 
2.56049 -1.76899 0.0 
-1.52889 2.56597 0.0 
2.81136 -0.570221 0.0 
1.3688 -1.46095 0.0 
1.29524 -0.373946 0.0 
-0.350504 0.671928 0.0 
-0.590282 0.564035 0.0 
-0.054366 2.16706 0.0 
1.50819 1.22548 0.0 
-0.548222 0.453941 0.0 
2.19936 -2.5207 0.0 
12.2704 -7 0.0 
1.6811 -1.36761 0.0 
-0.449261 0.559535 0.0 
0.537017 -0.527614 0.0 
-0.00733391 0.553304 0.0 
0.494109 -0.356396 0.0 
-0.7939 0.0827441 0.0 
0.39888 0.467333 0.0 
-1.04288 1.34095 0.0 
0.605019 1.02824 0.0 
0.847559 0.374727 0.0 
1.00336 0.618307 0.0 
2.1955 0.399186 0.0 
0.656973 0.401158 0.0 
-0.998431 2.73564 0.0 
[...]
<PointData>
  <DataArray type = "Float64" Name="VitesseP1" NumberOfComponents="3" format="ascii">
1 0 0.0 
1.09025 0 0.0 
1.03472 0 0.0 
1 0 0.0 
0.994682 0.0155684 0.0 
0.996953 0.0109312 0.0 
0.99555 0.0133906 0.0 
1.04299 -0.00304529 0.0 
1.04496 -0.00407399 0.0 
1.0506 -0.00349315 0.0 
0.99779 0.0118483 0.0 
0.986724 0.0723055 0.0 
0.996648 0.0112606 0.0 
0.996863 0.0120399 0.0 
0.998935 0.0118488 0.0 
0.992507 0.21784 0.0 
1.01988 0.0531742 0.0 
1.04983 -0.0256139 0.0 
0.998857 0.0112763 0.0 
0.995087 0.0143121 0.0 
1.05527 -0.0265812 0.0 
0.998914 0.0131422 0.0 
1.16113 -0.0258698 0.0 
1.04707 0.012758 0.0 
1.06482 -0.00168125 0.0 
0.998888 0.0127191 0.0 
0.944629 0.00856477 0.0 
1.06396 -0.0216389 0.0 
0.0655719 0.000395848 0.0 
0.988897 0.0311217 0.0 
1.14286 0.0671804 0.0 
1.11021 0.14172 0.0 
0.998896 0.0121622 0.0 
1.03476 -0.0171991 0.0 
0.941475 0.012148 0.0 
1.00558 0.0300203 0.0 
0.937016 -0.0514097 0.0 
1.08587 -0.00153466 0.0 
1.0578 0.00907332 0.0 
1.05516 -0.0153104 0.0 
1.05813 -0.00471012 0.0 
0.927069 0.151369 0.0 
1.07624 -0.0108625 0.0 
1.12756 0.00180343 0.0 
1.06921 0.00750424 0.0 
1.06455 -0.0134077 0.0 
1.06478 0.0350338 0.0 
1.05899 0.0247286 0.0 
1.2011 0.0278222 0.0 
0.939644 0.0354554 0.0 
1.04169 -0.00304266 0.0 
1.00248 0.0120243 0.0 
0.999902 0.0172396 0.0 
1.0411 -0.00465046 0.0 
1.03797 0.242846 0.0 
0.0326867 0.0108955 0.0 
1.04478 -0.00196531 0.0 
1.0027 0.0124094 0.0 
0.999155 0.0153735 0.0 
1.16566 -0.00272298 0.0 
0.143289 -0.00311662 0.0 
1.00241 0.0126765 0.0 
1.09761 0.0601291 0.0 
1.1231 0.120193 0.0 
0.557402 0.00277904 0.0 
1.0615 -0.0265134 0.0 
1.07186 -0.000667132 0.0 
0.557203 0.134594 0.0 
0.862916 0.0852635 0.0 
1.18714 -0.00728093 0.0 
1.20333 -0.037654 0.0 
1.0679 -0.0109893 0.0 
0.999111 0.0138407 0.0 
1 0 0.0 
0.299748 -0.0129943 0.0 
1.00218 0.0122724 0.0 
0.968183 0.0104487 0.0 
0.999131 0.0141968 0.0 
1.00178 0.0114874 0.0 
1.17451 0.0347379 0.0 
1.03859 0.0249959 0.0 
0.753207 -0.0405882 0.0 
0.949069 0.262863 0.0 
1.17356 0.114491 0.0 
0.946263 0.0140922 0.0 
0.969993 0.00874882 0.0 
1.00208 0.0119019 0.0 
1.0629 -0.0247153 0.0 
1.14383 0.0968544 0.0 
0.999198 0.014542 0.0 
1.04503 0.0293437 0.0 
1.04264 -0.0139585 0.0 
1.09695 0.0789189 0.0 
0.935625 0.0698389 0.0 
1.12544 0.124338 0.0 
0.999947 0.0126222 0.0 
1.00217 0.0107274 0.0 
0.0280845 -0.1565 0.0 
0.99931 0.0137625 0.0 
1.19173 -0.23453 0.0 
0.944161 0.0228497 0.0 
0.918956 -0.0884864 0.0 
0.915748 -0.0746207 0.0 
1.0471 -0.00336342 0.0 
0.924558 -0.0783677 0.0 
0.967238 -0.00825846 0.0 
1.0423 -0.0159349 0.0 
1.06968 -0.00234967 0.0 
1.1965 0.0825082 0.0 
1.0381 -0.0154653 0.0 
0.920283 -0.0887226 0.0 
0.95494 -0.00376537 0.0 
0.0878575 0.00653647 0.0 
1.20392 0.0348632 0.0 
1.04426 -0.00315429 0.0 
1.03652 -0.0173316 0.0 
1.03867 -0.00731467 0.0 
1.04195 -0.0108284 0.0 
1.03588 -0.011207 0.0 
1.03285 -0.0162712 0.0 
1.16421 0.183692 0.0 
1.0396 -0.00563777 0.0 
0.877463 0.125799 0.0 
0.999159 0.0207342 0.0 
1.03535 -0.0199178 0.0 
1.04187 0.00601907 0.0 
1.03745 -0.0223085 0.0 
1.1961 0.0899871 0.0 
1.06152 -0.013948 0.0 
1.00016 0.0178571 0.0 
1.03954 -0.00776175 0.0 
1.02957 0.0465558 0.0 
1.00078 0.0136378 0.0 
1.03715 -0.0199406 0.0 
1.05978 -0.010255 0.0 
1.08781 0.188721 0.0 
1.06908 -0.0730334 0.0 
0.155009 0.00442092 0.0 
1.05498 0.0238293 0.0 
0.456802 -0.0392024 0.0 
0.397609 -0.00783571 0.0 
0.977893 0.19626 0.0 
0.0706126 -0.00563473 0.0 
1.0382 -0.0132611 0.0 
1.0311 -0.16055 0.0 
1.05293 0.050894 0.0 
1.13968 0.120116 0.0 
0.998852 0.0193565 0.0 
0.0803531 0.00543282 0.0 
0.999034 0.0184262 0.0 
0.409805 -0.0168449 0.0 
0.998828 0.0144799 0.0 
1.04673 0.0286872 0.0 
0.985293 0.024391 0.0 
0.973561 0.0341945 0.0 
1.05774 0.0396875 0.0 
0.998662 0.0157233 0.0 
0.922945 -0.079621 0.0 
0.984293 0.0208205 0.0 
1.06837 0.021423 0.0 
0.981732 0.025251 0.0 
1.03422 0.0358138 0.0 
1.04044 -0.171061 0.0 
0.998952 0.0160066 0.0 
1.05923 -0.00593801 0.0 
0.920372 -0.0859949 0.0 
1.0345 0.0691663 0.0 
1.04879 -0.000810137 0.0 
1.06822 -0.0063328 0.0 
0.916602 -0.081812 0.0 
1.13306 0.111985 0.0 
0.999274 0.0167768 0.0 
0.927827 -0.0728097 0.0 
0.922405 -0.0826864 0.0 
0.998669 0.0125651 0.0 
1.04199 -0.00390577 0.0 
0.999538 0.0192422 0.0 
0.93914 0.151311 0.0 
1.13076 0.0485284 0.0 
0.99877 0.0148364 0.0 
0.634264 0.110555 0.0 
1.00621 0.0341118 0.0 
0.863478 0.0452385 0.0 
0.99899 0.0191434 0.0 
0.999339 0.0186667 0.0 
1.04537 -0.00533432 0.0 
0.974098 0.0237582 0.0 
1.07153 -0.0390571 0.0 
1.14172 0.199299 0.0 
1.10936 -0.128872 0.0 
0.87153 -0.0307035 0.0 
0.93832 0.0516883 0.0 
0.875156 0.0162132 0.0 
1.04434 -0.0059803 0.0 
0.924187 -0.0731893 0.0 
0.933296 -0.0626651 0.0 
0.918915 -0.0743449 0.0 
0.581675 0.110821 0.0 
1.05038 -0.00615336 0.0 
0.117003 0.0176424 0.0 
1.03746 0.26476 0.0 
1.03953 -0.0163798 0.0 
1.04412 -0.0100283 0.0 
1.04885 -0.0133479 0.0 
0.0959704 0.0251342 0.0 
1.14303 0.10355 0.0 
1.04387 -0.0285465 0.0 
1.0481 0.0180734 0.0 
0.941524 0.0084009 0.0 
1.0341 -0.0162054 0.0 
1.03619 -0.0119164 0.0 
0.99878 0.0156134 0.0 
1.04102 -0.0338603 0.0 
0.898692 -0.0656402 0.0 
0.999121 0.0147143 0.0 
0.909846 -0.0858366 0.0 
0.209688 -0.0141663 0.0 
0.887976 -0.0840376 0.0 
0.932726 0.0159091 0.0 
1.20157 0.0465039 0.0 
1.0441 0.0215601 0.0 
0.285628 -0.0345808 0.0 
1.09637 0.0865412 0.0 
0.998607 0.0158112 0.0 
1.01923 0.222753 0.0 
0.951715 0.177035 0.0 
0.998959 0.0172416 0.0 
0.99941 0.015643 0.0 
0.998813 0.0180669 0.0 
0.551632 -0.00377444 0.0 
0.967753 0.0249009 0.0 
0.965456 0.0224125 0.0 
0.41432 0.135732 0.0 
0.976664 0.0406185 0.0 
0.940269 -0.0445185 0.0 
0.301436 0.101477 0.0 
0.375143 0.184401 0.0 
1.06349 0.296592 0.0 
1.06946 -0.102663 0.0 
0.967214 0.0193357 0.0 
1.13843 0.0488099 0.0 
0.289566 -0.0119674 0.0 
1.00067 0.0113176 0.0 
0.990509 0.0334313 0.0 
1.00974 0.0345393 0.0 
0.983921 0.0308247 0.0 
0.999727 0.0163604 0.0 
0.918858 0.0211594 0.0 
1.05903 -0.131357 0.0 
0.919111 0.0754437 0.0 
0.908877 0.131751 0.0 
1.04766 0.0147645 0.0 
1.19316 0.0434009 0.0 
0.830038 0.116531 0.0 
1.05591 -0.0333601 0.0 
0.559154 0.0218894 0.0 
0.975868 0.0432578 0.0 
0.932666 -0.0504143 0.0 
0.702129 0.194568 0.0 
0.899334 0.338808 0.0 
0.987401 0.0260374 0.0 
1.06595 -0.0130497 0.0 
0.9674 0.0859818 0.0 
1.11351 -0.0764418 0.0 
1.11136 0.0617154 0.0 
0.983304 0.0324707 0.0 
0.956357 0.0119116 0.0 
1.19354 0.0484781 0.0 
0.999257 0.0227389 0.0 
1.07775 0.283619 0.0 
1.16728 0.0362376 0.0 
1.12399 -0.0774707 0.0 
0.994133 0.00997078 0.0 
1.01835 0.0449339 0.0 
0.937541 0.00729215 0.0 
0.997255 0.00831067 0.0 
1.01854 0.284072 0.0 
1.05514 -0.0212137 0.0 
1.00099 0.15113 0.0 
0.925235 -0.00676477 0.0 
1.03733 0.0338955 0.0 
0.99294 0.0284728 0.0 
1.03787 0.0183701 0.0 
0.962876 0.0255957 0.0 
0.985138 0.0280343 0.0 
1.03771 0.00907167 0.0 
1 0 0.0 
1.06903 -0.00577195 0.0 
0.984866 0.0296763 0.0 
1.04693 -2.52489e-05 0.0 
0.987698 0.0278129 0.0 
1.03136 -0.0309709 0.0 
1.03361 -0.027076 0.0 
1.19341 0.0991295 0.0 
0.984928 0.0260721 0.0 
1.12967 -0.0820932 0.0 
0.91362 -0.146656 0.0 
1.0676 -0.0015835 0.0 
1.12815 -0.114699 0.0 
1.14723 0.0512537 0.0 
0.931452 0.0271428 0.0 
1.03738 0.0020407 0.0 
0.996026 0.0170058 0.0 
0.979907 0.0389745 0.0 
0.984151 0.0109849 0.0 
0.995528 0.010242 0.0 
0.990104 0.0210931 0.0 
1.09022 0.1679 0.0 
0.948691 0.0243898 0.0 
0.998776 0.0174497 0.0 
1.1459 0.0587199 0.0 
1.16589 0.0400162 0.0 
0.998519 0.0167029 0.0 
0.931552 -0.0572025 0.0 
0.999125 0.0140158 0.0 
1.04313 -0.128123 0.0 
0.99513 0.0175998 0.0 
1.00022 0.0108896 0.0 
0.980875 0.0281286 0.0 
0.988948 0.0280493 0.0 
0.996681 0.0211548 0.0 
0.99202 0.029863 0.0 
0.882343 -0.105836 0.0 
1 0 0.0 
1 0 0.0 
1.03147 0.0458762 0.0 
0.995374 0.0237932 0.0 
0.237594 -0.00738735 0.0 
0.0607144 0.0120306 0.0 
1.11728 0.216608 0.0 
0.960238 -0.0453804 0.0 
1.20066 0.0762395 0.0 
1.14447 0.06281 0.0 
0.994565 0.018306 0.0 
1.14133 0.0708415 0.0 
0.991923 0.0243615 0.0 
0.948463 -0.164216 0.0 
1 0 0.0 
1.15738 0.0337827 0.0 
0.962029 0.189634 0.0 
0.992865 0.0228724 0.0 
1.14425 -0.0851081 0.0 
1.04425 0.0152446 0.0 
1.04455 0.0169488 0.0 
0.982993 0.0287823 0.0 
0.995396 0.0112027 0.0 
1.12879 0.231882 0.0 
1.11857 0.0902983 0.0 
0.99432 0.0193528 0.0 
0.160793 0.00225131 0.0 
0.958595 0.00102017 0.0 
0.992174 0.0119996 0.0 
0.995326 0.0119088 0.0 
0.368499 -0.000949947 0.0 
0.985639 0.0230081 0.0 
0.948602 -0.0294408 0.0 
0.953739 -0.00697431 0.0 
0.100508 -0.0102736 0.0 
1 0 0.0 
1.069 0 0.0 
1.00815 0.165762 0.0 
1.12027 -0.146106 0.0 
0.932205 0.0356161 0.0 
1.11328 -0.130179 0.0 
0.33275 -0.00191625 0.0 
0.081803 -0.0029327 0.0 
0.989729 0.0127277 0.0 
0.98577 0.021531 0.0 
0.987542 0.0158512 0.0 
0.991742 0.0141435 0.0 
1.1087 -0.173503 0.0 
1.06795 -0.010075 0.0 
1.08011 0.146559 0.0 
1.12149 0.0832219 0.0 
0.231666 -0.00301648 0.0 
0.956929 0.0788668 0.0 
1.00068 0.0199236 0.0 
1.11166 0.256806 0.0 
0.972398 0.0323009 0.0 
1.06716 -0.0139764 0.0 
0.959463 0.0376237 0.0 
1.06704 -0.00676885 0.0 
0.490052 -0.0110254 0.0 
0.0819029 0.00872731 0.0 
0.0605547 0.0172787 0.0 
0.290245 -0.00668875 0.0 
0.999835 0.0120706 0.0 
0.0870045 0.00109335 0.0 
1.05996 -0.00141972 0.0 
1.16102 -0.0427257 0.0 
1.0682 -0.00446211 0.0 
1 0 0.0 
0.999853 0.0156602 0.0 
1.06615 0.00133951 0.0 
0.979266 0.0317021 0.0 
0.104142 0.0080593 0.0 
1.05972 0.00559539 0.0 
0.0785373 -0.000361205 0.0 
1.057 0.0132061 0.0 
0.920546 0.0278272 0.0 
1.04345 0.000984771 0.0 
0.957551 0.0580032 0.0 
1.00003 0.0209273 0.0 
1.19597 -0.110041 0.0 
0.6846 -0.0133224 0.0 
1.03551 -0.0309634 0.0 
1.0416 -0.0364512 0.0 
1.06959 -0.0446425 0.0 
1.05627 0.0103732 0.0 
1.06774 -0.0123154 0.0 
1.18974 0.021036 0.0 
1.04283 0.0147257 0.0 
1.24568 0.0827855 0.0 
1.03588 0.0312455 0.0 
1.00006 0.0166991 0.0 
1.17742 0.106118 0.0 
1.0652 -0.0191647 0.0 
0.973218 -0.045516 0.0 
0.947994 0.073845 0.0 
0.944412 0.0371112 0.0 
1.01436 0.0412963 0.0 
1.13444 -0.00209657 0.0 
0.92911 0.0324726 0.0 
1.00661 -0.00600166 0.0 
1.06644 0 0.0 
1.06419 -0.00296797 0.0 
0.934051 0.0541748 0.0 
1.1399 -0.163688 0.0 
0.93594 0.160281 0.0 
1.10319 -0.194974 0.0 
0.952689 -0.0201985 0.0 
1.08803 0.250657 0.0 
0.983455 0.0270942 0.0 
1.08777 0.104139 0.0 
0.790886 0.101172 0.0 
1.17613 0.105593 0.0 
0.484908 -0.00562537 0.0 
1.07666 0.186082 0.0 
1.00422 0.0209203 0.0 
1.05676 0.0160802 0.0 
1.04334 0.00948133 0.0 
1.04767 -0.000348947 0.0 
1.0463 0.000772208 0.0 
0.0746877 0.0164428 0.0 
1.04236 0.00274221 0.0 
-0.0305099 0.0223915 0.0 
1.06597 -0.0404548 0.0 
1.00427 0.034588 0.0 
1.0449 0.0101144 0.0 
1 0 0.0 
0.983437 0.0259355 0.0 
1.19396 0.095024 0.0 
0.775209 -0.0381383 0.0 
0.999703 0.0151077 0.0 
0.992026 0.0385825 0.0 
1.05013 0.0108608 0.0 
1.05497 0.00590795 0.0 
0.940157 0.188957 0.0 
0.78168 0.130428 0.0 
1.0045 0.0179445 0.0 
1.13906 0.126977 0.0 
1.00018 0.243224 0.0 
0.999204 0.0117758 0.0 
0.986118 0.0288429 0.0 
1.05133 0.00176251 0.0 
0.938147 0.124512 0.0 
0.18191 0.0178806 0.0 
1.05034 0.00393121 0.0 
0.174022 0.0991497 0.0 
1.05051 -0.00035564 0.0 
1.0238 -0.0142024 0.0 
1.01647 0.0464734 0.0 
1.12614 -0.046668 0.0 
1.04717 0.00289446 0.0 
0.957228 -0.00636797 0.0 
0.345067 0.013083 0.0 
1.06378 -0.0225474 0.0 
0.946794 -0.00157532 0.0 
0.999912 0.0147986 0.0 
1.06132 -0.0275041 0.0 
0.942029 0.0655581 0.0 
1.19827 -0.0452628 0.0 
0.27635 -0.0100821 0.0 
0.615454 -0.0169039 0.0 
0.941316 -0.00475317 0.0 
0.964891 0.27232 0.0 
0.251603 0.047895 0.0 
0.997184 0.315886 0.0 
0.945076 -0.00721795 0.0 
1.07968 -0.0428628 0.0 
0.712011 0.000459417 0.0 
0.357595 0.116339 0.0 
1.10272 0.0696433 0.0 
0.998789 0.0118953 0.0 
0.564183 0.00159789 0.0 
0.165465 0.041601 0.0 
0.914675 -0.0435175 0.0 
0.770709 -0.0236528 0.0 
1.03269 0.0476257 0.0 
0.998837 0.011507 0.0 
1.02667 -0.0978558 0.0 
1.11588 -0.0342924 0.0 
1.17501 0.0231814 0.0 
0.0817783 0.0017037 0.0 
0.936532 -0.057721 0.0 
1.03489 0.0439495 0.0 
1.06794 -0.00792684 0.0 
0.938298 -0.00913777 0.0 
0.0715468 0.00767522 0.0 
0.998873 0.0124182 0.0 
1.17373 0.0280929 0.0 
1.0596 -0.0267315 0.0 
0.964113 0.216024 0.0 
1.05323 0.0176451 0.0 
1.06954 0.000454068 0.0 
1.06967 0.00528201 0.0 
0.954718 0.0373918 0.0 
1.0616 -0.0244923 0.0 
0.999012 0.013581 0.0 
0.952423 0.00690065 0.0 
1.13968 -0.0332802 0.0 
1.05642 0.0204814 0.0 
0.989445 0.00714551 0.0 
0.953602 0.0151534 0.0 
0.999056 0.0137612 0.0 
1.05967 0.00530946 0.0 
1.04227 -0.00453321 0.0 
1.06138 -0.0217167 0.0 
0.990609 0.00877747 0.0 
1.02293 0.0481235 0.0 
0.998927 0.0130552 0.0 
1.04502 -0.0263157 0.0 
1.06715 0.0196196 0.0 
0.0529072 0.0164199 0.0 
0.0564087 0.0122623 0.0 
1.07011 0.0155948 0.0 
0.90554 -0.05656 0.0 
0.889893 -0.0478751 0.0 
0.881248 0.120197 0.0 
0.999518 0.0136811 0.0 
0.998936 0.0136905 0.0 
0.963003 -0.0133219 0.0 
0.965151 -0.00213147 0.0 
1.03519 0.0277206 0.0 
0.964094 0.234907 0.0 
1.06761 0.1519 0.0 
1.0306 -0.0441351 0.0 
0.066018 -0.00212721 0.0 
1.16195 0.0233409 0.0 
1.09444 0.142919 0.0 
0.998784 0.013224 0.0 
1.01664 0.0374795 0.0 
1.11281 -0.00836191 0.0 
0.982933 0.0207486 0.0 
0.934717 0.0463054 0.0 
1.03069 -0.0290061 0.0 
0.973519 0.0371864 0.0 
0.941475 0.108903 0.0 
0.934394 0.0588311 0.0 
0.817814 -0.0359365 0.0 
0.963042 0.00694743 0.0 
0.789732 -0.0480665 0.0 
1.00116 0.0178234 0.0 
1.0313 0.0424398 0.0 
0.954018 -0.0103533 0.0 
0.961742 -0.00117913 0.0 
0.922857 0.0340931 0.0 
1.10138 0.249036 0.0 
0.972475 0.00590645 0.0 
0.942542 0.29186 0.0 
0.945608 0.03264 0.0 
0.975545 0.226428 0.0 
0.85008 0.286047 0.0 
0.995256 0.00735386 0.0 
1.00072 0 0.0 
0.998868 0.0119082 0.0 
0.977398 0.00137702 0.0 
0.894785 0.153962 0.0 
0.13437 0.00859912 0.0 
1.01092 0.0428542 0.0 
0.980879 0.00697158 0.0 
0.999437 0.0123014 0.0 
0.915992 -0.0719721 0.0 
0.916878 0.0328918 0.0 
1.1976 -0.0338881 0.0 
0.998771 0.0121678 0.0 
0.956205 0.0763925 0.0 
0.755957 -0.0739635 0.0 
1.03357 -0.0230303 0.0 
0.936455 0.0635633 0.0 
0.995389 0.015964 0.0 
0.944642 0.0274009 0.0 
0.991192 0.0198017 0.0 
0.0821965 0.0134632 0.0 
0.748458 -0.0644818 0.0 
1.04449 -0.00222652 0.0 
1.15612 0.0829382 0.0 
1.14665 -0.0274109 0.0 
0.997742 0.0105063 0.0 
0.982352 0.0183827 0.0 
1.00461 0.202222 0.0 
1.1147 0.157775 0.0 
0.583451 0.0955817 0.0 
0.951468 0.189137 0.0 
0.981729 0.0187507 0.0 
0.292087 -0.0216721 0.0 
0.982734 0.0216563 0.0 
0.99736 0.0125281 0.0 
1.00047 0.0192942 0.0 
0.237607 -0.0185899 0.0 
0.196481 -0.00951412 0.0 
0.981957 0.0298856 0.0 
0.338267 0.0581483 0.0 
1.19277 0.0908612 0.0 
1.01015 0.0423534 0.0 
0.981127 0.0321432 0.0 
0.999825 0.0192128 0.0 
0.978049 0.0110529 0.0 
0.930558 0.0686244 0.0 
0.976733 0.025561 0.0 
0.852338 0.285184 0.0 
0.478129 -0.0301568 0.0 
0.222021 -0.00727024 0.0 
0.968354 0.0133453 0.0 
0.974935 0.0119629 0.0 
1.05475 0.204782 0.0 
0.298434 -0.0251647 0.0 
0.940089 0.0208674 0.0 
1.03392 -0.0385554 0.0 
0.983386 0.245887 0.0 
0.999365 0.0133256 0.0 
0.922815 0.0817584 0.0 
0.972578 0.0308098 0.0 
0.930455 0.143295 0.0 
0.959634 0.156507 0.0 
1.00922 0.255309 0.0 
0.710098 -0.026842 0.0 
0.93753 -0.0524654 0.0 
1.11749 0.0591558 0.0 
0.469152 0.0937107 0.0 
0.926646 -0.059788 0.0 
0.108069 0.00553702 0.0 
0.899249 -0.0129649 0.0 
0.749157 0.1361 0.0 
0.915331 -0.0665493 0.0 
0.922406 -0.0562749 0.0 
0.614729 0.165271 0.0 
1.04694 0.00796835 0.0 
0.941228 0.173423 0.0 
0.879906 -0.0050101 0.0 
0.928533 -0.0538568 0.0 
1.04122 -0.00481034 0.0 
0.340572 0.0415923 0.0 
1.03787 -0.00812646 0.0 
0.866352 0.00732617 0.0 
0.897645 0.217426 0.0 
1.05007 -0.000360899 0.0 
0.906899 -0.0882236 0.0 
0.921732 0.183025 0.0 
0.281633 -0.0254401 0.0 
1.13096 0.0620241 0.0 
1.03478 0.17044 0.0 
0.831307 0.380914 0.0 
1.10257 0.165021 0.0 
1.06435 0.259998 0.0 
0.951787 -0.0381353 0.0 
0.717603 -0.0886995 0.0 
0.977843 0.0331532 0.0 
0.522548 0.0620252 0.0 
0.918633 -0.0527692 0.0 
1.04985 0.0684085 0.0 
0.17276 -0.00185667 0.0 
1.04426 0.263777 0.0 
1.0604 0.0420751 0.0 
0.879313 0.105277 0.0 
1.00528 0.0214198 0.0 
0.893048 0.0669075 0.0 
0.12842 0.00755594 0.0 
0.853598 0.0763862 0.0 
0.949638 0.0367477 0.0 
0.947531 0.00375874 0.0 
1.17455 -0.0389963 0.0 
0.763743 0.335442 0.0 
0.847959 0.0891111 0.0 
1.02907 0.0725402 0.0 
1.0826 -0.095331 0.0 
0.921275 -0.0470019 0.0 
1.04011 0.272031 0.0 
0.964891 0.0167397 0.0 
0.995916 0.0399291 0.0 
0.910548 0.0769714 0.0 
0.924881 0.112621 0.0 
0.910951 0.0353441 0.0 
1.00933 0.0270198 0.0 
0.920116 0.105931 0.0 
0.917733 0.220909 0.0 
0.999287 0.0124281 0.0 
1.09255 -0.0708584 0.0 
0.29845 -0.0276841 0.0 
1.05395 0.251347 0.0 
0.966495 0.203103 0.0 
0.80744 0.151265 0.0 
0.827225 0.0381596 0.0 
0.88658 0.0297733 0.0 
1.04239 0.305342 0.0 
0.999684 0.017066 0.0 
1.12526 0.140122 0.0 
1.03345 0.226543 0.0 
0.886547 -0.0484253 0.0 
0.923165 -0.00203374 0.0 
0.858688 0.158439 0.0 
0.911221 0.0205701 0.0 
0.885454 0.0147785 0.0 
0.932538 -0.0461796 0.0 
0.934488 0.207312 0.0 
0.995858 0.0300178 0.0 
0.999682 0.0145768 0.0 
0.106794 0.00972739 0.0 
0.0943844 0.0122854 0.0 
0.913177 0.0276831 0.0 
0.52666 0.153727 0.0 
1.03919 -0.00661122 0.0 
0.921896 -0.0164815 0.0 
0.978099 -0.00110734 0.0 
0.90291 0.0764448 0.0 
0.842126 0.00663873 0.0 
1.08255 -0.0672488 0.0 
0.955239 0.00785687 0.0 
0.975639 0.00897162 0.0 
1.08452 0.267891 0.0 
0.21859 -0.0120478 0.0 
0.930909 0.300329 0.0 
0.973126 0.00251077 0.0 
0.989181 0.053841 0.0 
1.06928 -0.229394 0.0 
0.969115 0.00455408 0.0 
0.961879 0.0124282 0.0 
0.997765 0.0130766 0.0 
1.03831 -0.00786764 0.0 
0.798216 0.108627 0.0 
0.90474 0.0183114 0.0 
0.990977 0.00528651 0.0 
1.0289 -0.18281 0.0 
0.995262 0.015249 0.0 
0.935718 0.0240115 0.0 
0.811049 0.168312 0.0 
0.950213 -0.00860696 0.0 
0.998147 0.00999102 0.0 
0.938969 0.00460828 0.0 
0.188693 0.128483 0.0 
0.94407 -0.00851449 0.0 
1.06594 -0.00927717 0.0 
0.954236 0.288785 0.0 
0.0668822 0.0112748 0.0 
1.10171 0.255208 0.0 
0.988064 0.0147317 0.0 
0.913535 -0.12296 0.0 
0.969009 0.00172192 0.0 
0.959797 0.00902079 0.0 
0.960047 0.00442222 0.0 
0.543926 0.13488 0.0 
0.962081 0.00174209 0.0 
0.956199 -0.0136855 0.0 
0.652321 0.184295 0.0 
1.03497 -0.0116939 0.0 
1.03476 0.0448092 0.0 
0.997198 0.266069 0.0 
0.981181 0.0206611 0.0 
0.97566 0.0288496 0.0 
0.964838 0.0038164 0.0 
0.893752 0.0128356 0.0 
0.959143 -0.0179789 0.0 
0.118014 0.000621078 0.0 
0.96887 -0.000341857 0.0 
1.0616 0.0173529 0.0 
0.876552 0.168011 0.0 
0.996528 0.0118916 0.0 
1.06707 0.0282074 0.0 
1.05796 0.0948815 0.0 
1.10291 -0.0709895 0.0 
1.097 0.104849 0.0 
0.976664 -0.00307149 0.0 
0.877208 0.182974 0.0 
0.996706 0.0142726 0.0 
0.996997 0.0109741 0.0 
0.890066 -0.0413027 0.0 
0.978877 0.0256186 0.0 
1.16441 -0.22712 0.0 
0.662338 0.015866 0.0 
0.942268 0.0414409 0.0 
1.01777 0.302733 0.0 
0.908445 0.353309 0.0 
0.839447 0.13206 0.0 
1.16023 0.0755791 0.0 
0.154004 0.13404 0.0 
1.01859 0.289704 0.0 
1.06673 0.265972 0.0 
1.04001 -0.00498189 0.0 
0.939142 0.0941058 0.0 
0.0489775 0.00722364 0.0 
1.1766 0.147402 0.0 
0.978001 0.0316979 0.0 
0.910366 0.121962 0.0 
1.12718 0.219919 0.0 
0.851794 0.124235 0.0 
-0.0404355 -0.0179828 0.0 
0.979085 0.0298296 0.0 
0.925427 0.0735062 0.0 
0.745779 0.140574 0.0 
0.979914 0.0265767 0.0 
0.912167 0.150056 0.0 
0.995944 0.0123613 0.0 
0.903485 0.101375 0.0 
0.979409 0.0277456 0.0 
0.854314 0.0555498 0.0 
0.831384 0.0223988 0.0 
0.904647 0.164136 0.0 
0.998815 0.0111993 0.0 
0.96908 -0.0048095 0.0 
0.98037 0.0249208 0.0 
0.9992 0.0173552 0.0 
0.962949 -0.00484214 0.0 
0.96193 -0.008511 0.0 
0.966391 -0.00429821 0.0 
0.938512 -0.0415545 0.0 
0.926187 0.0579956 0.0 
0.926819 0.0879815 0.0 
1.04227 -0.000363049 0.0 
0.989943 0.0318047 0.0 
1.06597 0.0292818 0.0 
0.999302 0.0142583 0.0 
1.07937 -0.00634107 0.0 
1.00571 0.0796278 0.0 
0.949946 0.0131656 0.0 
0.977138 0.0269264 0.0 
1.05051 -0.161091 0.0 
1.10185 0.243158 0.0 
1.12503 0.231372 0.0 
0.933596 -0.0323049 0.0 
0.999193 0.0137916 0.0 
0.951435 0.0108212 0.0 
0.99645 0.0134301 0.0 
0.97967 0.00525144 0.0 
1.05692 0.0105775 0.0 
1.04937 -0.171815 0.0 
0.0670398 0.00382754 0.0 