<VTKFile type="UnstructuredGrid" version="0.1" byte_order="LittleEndian">
  <UnstructuredGrid>
    <Piece NumberOfPoints="9712" NumberOfCells="19403">
      <Points>
        <DataArray type = "Float64" NumberOfComponents="3" format="ascii">
-5 -7 0.0 
15.5 -7 0.0 
15.5 7 0.0 
-5 7 0.0 
-1.6546 1.77742 0.0 
-2.13867 1.86504 0.0 
-1.83467 1.79143 0.0 
1.47969 -2.21179 0.0 
1.36003 -2.38618 0.0 
1.4346 -2.45048 0.0 
-2.04214 1.94165 0.0 
-0.20425 1.17338 0.0 
-2.07648 1.81911 0.0 
-2.00827 1.89081 0.0 
-2.05492 1.98872 0.0 
0.192693 0.536219 0.0 
0.154285 1.75648 0.0 
1.1379 -1.62057 0.0 
-2.11226 1.96977 0.0 
-1.74119 1.75327 0.0 
1.14499 -1.58184 0.0 
-1.94373 2.37229 0.0 
1.50619 -0.664239 0.0 
1.99658 -1.76705 0.0 
1.7229 -1.18344 0.0 
-1.97759 2.52091 0.0 
-0.768046 0.387136 0.0 
1.32657 -1.43969 0.0 
1.90142 0.24821 0.0 
-0.93264 1.51038 0.0 
1.09557 0.967223 0.0 
0.627111 0.757352 0.0 
-2.05707 2.31394 0.0 
1.34027 -2.45136 0.0 
-0.725097 0.397516 0.0 
-0.666094 2.30428 0.0 
-0.73829 -0.279965 0.0 
1.73336 -1.08822 0.0 
1.88466 -1.24421 0.0 
1.50539 -1.23752 0.0 
1.65978 -1.30759 0.0 
-0.0409718 0.542603 0.0 
1.6005 -1.1227 0.0 
1.78439 -0.941488 0.0 
1.86015 -1.54236 0.0 
1.49308 -1.40058 0.0 
2.34892 -1.47149 0.0 
2.13832 -1.3246 0.0 
1.73061 0.751302 0.0 
-0.580328 0.526903 0.0 
1.51013 -2.1595 0.0 
-1.65424 3.45779 0.0 
-1.51397 2.46352 0.0 
1.42773 -2.17867 0.0 
0.304353 0.497878 0.0 
2.24628 0.228293 0.0 
1.51258 -2.27933 0.0 
-1.60346 3.44299 0.0 
-1.71408 2.36227 0.0 
2.17421 0.530405 0.0 
2.42 0.316451 0.0 
-1.63642 3.31911 0.0 
2.53942 -0.995036 0.0 
0.750003 0.810439 0.0 
2.04736 0.40918 0.0 
1.19615 -1.50641 0.0 
2.13474 0.494063 0.0 
0.547924 0.306722 0.0 
-0.2059 0.361394 0.0 
2.2127 0.547693 0.0 
1.41442 -0.597105 0.0 
1.52233 -1.46252 0.0 
-1.84114 2.53924 0.0 
-5 -2.53894 0.0 
2.32127 0.371156 0.0 
-1.69186 3.33379 0.0 
-0.964779 0.566136 0.0 
-1.81311 2.48387 0.0 
-1.78557 3.38304 0.0 
1.48278 0.914136 0.0 
2.51531 -1.89689 0.0 
1.20982 -0.330514 0.0 
0.408434 0.319657 0.0 
0.95023 0.60993 0.0 
-0.752349 0.440796 0.0 
-0.998248 0.564019 0.0 
-1.73165 3.36299 0.0 
1.24353 -1.49063 0.0 
0.942095 0.817189 0.0 
-1.77816 2.47096 0.0 
2.48183 -1.95479 0.0 
1.33574 -1.77854 0.0 
0.823335 1.12085 0.0 
-0.36308 0.598468 0.0 
0.745466 0.783414 0.0 
-1.88344 2.8521 0.0 
-1.79794 3.52221 0.0 
3.0087 0.272815 0.0 
-1.81486 2.66014 0.0 
0.375911 -0.403668 0.0 
-0.68323 0.487288 0.0 
-0.34187 -0.274923 0.0 
-0.293875 -0.201368 0.0 
1.61018 -1.767 0.0 
-0.448275 -0.347267 0.0 
-1.08687 0.352015 0.0 
1.29257 -1.76345 0.0 
1.67658 -1.49551 0.0 
1.19193 0.533009 0.0 
1.21582 -1.91654 0.0 
-0.36438 -0.346225 0.0 
-0.92534 0.330346 0.0 
2.3836 0.287756 0.0 
1.68841 0.639887 0.0 
1.59001 -1.89458 0.0 
1.14818 -1.92143 0.0 
1.28996 -2.19426 0.0 
1.37603 -1.8763 0.0 
1.23834 -2.09141 0.0 
1.11702 -2.06287 0.0 
0.691829 0.463808 0.0 
1.46523 -2.03459 0.0 
-0.123547 0.424486 0.0 
-1.3311 2.12174 0.0 
1.08169 -1.90074 0.0 
1.87975 -2.15971 0.0 
1.10131 -1.78593 0.0 
1.13722 0.534683 0.0 
1.42465 -1.59031 0.0 
-1.45435 2.47344 0.0 
1.41998 -1.98207 0.0 
0.463917 1.8787 0.0 
-1.72896 2.89571 0.0 
1.12419 -1.84975 0.0 
1.59054 -1.20634 0.0 
0.46124 0.621002 0.0 
0.806438 -1.00204 0.0 
2.1804 0.349761 0.0 
2.21142 -1.6418 0.0 
1.10152 -0.274558 0.0 
2.23388 0.387302 0.0 
0.137769 0.567007 0.0 
1.88736 0.267391 0.0 
1.26821 -1.94267 0.0 
0.21033 -0.605707 0.0 
2.61094 -1.50046 0.0 
0.819837 0.743337 0.0 
-1.4303 2.07799 0.0 
1.82013 0.322126 0.0 
-1.47649 2.2099 0.0 
1.15745 -0.274223 0.0 
-1.81198 2.24994 0.0 
2.34337 -1.67775 0.0 
-1.13329 1.37877 0.0 
-0.828215 1.05292 0.0 
2.46752 -1.53452 0.0 
-1.69915 2.18529 0.0 
-0.404416 -0.286271 0.0 
-1.23501 1.31766 0.0 
2.11757 -1.50659 0.0 
-1.08535 1.28274 0.0 
2.58548 -1.70783 0.0 
0.24729 -0.572345 0.0 
-1.66963 2.25319 0.0 
1.58322 -1.62308 0.0 
-0.367923 -0.306026 0.0 
0.391521 1.44485 0.0 
1.88977 -2.46319 0.0 
1.5943 -1.53613 0.0 
-0.357143 -0.23651 0.0 
0.82621 0.80563 0.0 
-1.59261 2.31884 0.0 
-0.47244 -0.307516 0.0 
-0.40334 -0.326688 0.0 
-2.00063 2.11543 0.0 
1.55514 -1.95078 0.0 
-1.40431 2.26352 0.0 
-0.0265928 0.573714 0.0 
1.17093 1.10579 0.0 
-1.77907 2.22111 0.0 
0.682788 0.329642 0.0 
-0.54475 2.15572 0.0 
-0.288592 0.289433 0.0 
-1.43199 2.16349 0.0 
-1.45029 2.25134 0.0 
1.5535 -1.79992 0.0 
-1.06406 1.08381 0.0 
1.72954 1.44966 0.0 
0.582806 0.515814 0.0 
0.582876 -0.679913 0.0 
1.32351 -0.355916 0.0 
-0.47505 0.577092 0.0 
-0.371167 0.227715 0.0 
1.52235 -1.8529 0.0 
-0.429822 -0.244811 0.0 
-0.53237 -0.24648 0.0 
-0.393983 -0.210364 0.0 
0.652895 0.317361 0.0 
1.55812 -1.70765 0.0 
1.63021 0.325622 0.0 
0.442731 0.358729 0.0 
1.22925 -1.85192 0.0 
1.43517 -1.79082 0.0 
1.39317 -1.6984 0.0 
1.62965 0.295952 0.0 
0.905462 0.793465 0.0 
1.04036 -1.64811 0.0 
2.1131 -1.72466 0.0 
-0.743911 0.369492 0.0 
1.14427 -1.99314 0.0 
1.26033 -2.0209 0.0 
-1.70955 2.07308 0.0 
0.910023 -1.62976 0.0 
-0.313059 -0.0954838 0.0 
-1.77334 2.3988 0.0 
-0.311958 -0.24042 0.0 
2.53315 0.325608 0.0 
-0.273728 -0.226719 0.0 
-0.646401 0.379627 0.0 
1.52426 0.616074 0.0 
2.21703 -1.79499 0.0 
2.71108 0.312216 0.0 
0.759924 1.093 0.0 
-1.69271 2.12368 0.0 
0.255794 0.540969 0.0 
0.0534699 0.562158 0.0 
-1.5679 2.22408 0.0 
-1.66906 2.45165 0.0 
-1.51895 2.09449 0.0 
2.16948 0.408238 0.0 
-0.818806 0.680638 0.0 
-0.826868 0.642087 0.0 
0.519855 0.276992 0.0 
-0.716682 1.18602 0.0 
-0.649974 -0.148775 0.0 
0.457368 0.256619 0.0 
0.517407 0.248194 0.0 
0.327129 0.39802 0.0 
0.533249 -0.878832 0.0 
-0.870735 0.634904 0.0 
1.19219 1.07557 0.0 
2.35922 0.366028 0.0 
-1.66911 3.66723 0.0 
-0.857603 1.54934 0.0 
-0.379189 2.30131 0.0 
-0.941007 1.36523 0.0 
-1.58662 2.49682 0.0 
-0.545297 0.352587 0.0 
0.327944 -0.744683 0.0 
-0.312756 0.524741 0.0 
-0.107843 0.506233 0.0 
2.13378 -2.36584 0.0 
1.52689 0.686953 0.0 
-0.119983 0.327909 0.0 
1.02161 -1.53072 0.0 
1.51507 0.39695 0.0 
-0.674484 1.02605 0.0 
-0.564724 -0.148435 0.0 
0.409388 0.290913 0.0 
0.252349 0.30842 0.0 
-1.09282 1.45998 0.0 
1.45674 -1.54484 0.0 
-0.266777 0.782169 0.0 
0.91327 -0.874389 0.0 
1.01208 1.13309 0.0 
-0.897136 1.35063 0.0 
-0.846484 0.489353 0.0 
1.47563 0.663768 0.0 
-1.22282 2.05021 0.0 
0.348906 0.416714 0.0 
1.41913 0.964648 0.0 
0.933289 -0.839038 0.0 
-1.85066 1.40221 0.0 
0.142477 1.99435 0.0 
-0.717809 0.341194 0.0 
-2.21177 1.41584 0.0 
0.396571 0.350929 0.0 
1.25171 -1.60721 0.0 
0.736798 0.393502 0.0 
-0.661427 0.19031 0.0 
2.18751 -2.32769 0.0 
-1.00908 1.6747 0.0 
2.21416 -2.07269 0.0 
-0.779194 0.642011 0.0 
-1.02312 1.3939 0.0 
2.08809 -2.24876 0.0 
-5 -4.48794 0.0 
1.61792 -1.46215 0.0 
-0.974627 1.38947 0.0 
1.81166 -2.48446 0.0 
-1.03635 1.47474 0.0 
0.869004 -1.74424 0.0 
0.956579 -1.78598 0.0 
1.07495 0.540689 0.0 
-1.08005 1.37763 0.0 
0.914755 -0.803058 0.0 
0.611759 -0.305322 0.0 
1.70043 -1.41356 0.0 
0.75708 -0.631542 0.0 
1.21215 1.01979 0.0 
-0.586902 0.440014 0.0 
1.9251 -2.56336 0.0 
-1.58261 1.91091 0.0 
-0.746541 1.26087 0.0 
-1.49915 1.13657 0.0 
-1.46675 0.971536 0.0 
-1.05881 0.930935 0.0 
0.71826 0.415078 0.0 
-0.701697 0.526982 0.0 
-1.56194 2.05157 0.0 
1.15988 0.991244 0.0 
1.38676 0.949615 0.0 
-1.61697 2.02689 0.0 
1.13748 -0.357331 0.0 
-1.8456 2.04561 0.0 
0.253686 -0.756334 0.0 
-1.53603 1.86509 0.0 
-1.43465 0.924137 0.0 
-1.00273 1.27416 0.0 
-1.03063 1.5132 0.0 
-1.32483 1.94769 0.0 
-0.965552 1.61445 0.0 
-0.239859 -0.245939 0.0 
-5 3.01776 0.0 
-5 -0.248741 0.0 
0.517491 1.87079 0.0 
-1.18776 1.8875 0.0 
2.27458 0.36201 0.0 
1.9794 0.331487 0.0 
0.503086 0.510306 0.0 
1.26387 -0.370702 0.0 
1.24483 0.550197 0.0 
1.12871 0.979556 0.0 
-1.48659 1.83259 0.0 
1.0672 0.958366 0.0 
-1.16856 1.61214 0.0 
-0.218637 -0.230696 0.0 
-5 1.81431 0.0 
1.37014 1.04658 0.0 
0.0950623 0.557621 0.0 
-1.23613 1.67303 0.0 
0.953731 -0.709843 0.0 
2.07568 -1.85385 0.0 
2.10836 -1.82014 0.0 
-0.994952 1.33552 0.0 
-1.86986 1.52312 0.0 
0.515812 0.447542 0.0 
0.842446 0.992035 0.0 
-1.42353 1.8223 0.0 
2.091 0.354014 0.0 
-0.937663 0.401428 0.0 
-1.69305 1.41997 0.0 
-1.82465 1.55127 0.0 
2.15192 0.384657 0.0 
-1.17972 1.37998 0.0 
-0.718866 -0.0130647 0.0 
-0.927867 0.290435 0.0 
1.56509 0.300406 0.0 
-5 -3.04052 0.0 
9.98027 -7 0.0 
0.176009 0.694641 0.0 
0.597997 -0.559941 0.0 
-0.546583 0.4849 0.0 
0.602022 -0.657834 0.0 
2.17737 0.379672 0.0 
1.89809 0.287017 0.0 
-1.58883 1.35796 0.0 
-1.2284 1.37063 0.0 
-1.43937 1.35342 0.0 
-1.59664 1.47263 0.0 
0.577431 -0.368705 0.0 
1.5263 -1.51093 0.0 
0.479666 0.796509 0.0 
0.894995 1.01463 0.0 
2.22312 0.363016 0.0 
-0.320562 0.726481 0.0 
-1.30188 2.41386 0.0 
0.43802 0.434693 0.0 
-0.761697 0.762024 0.0 
1.45688 -1.49591 0.0 
-0.65072 0.676835 0.0 
1.6097 -1.41509 0.0 
2.25768 0.399237 0.0 
1.85518 0.299709 0.0 
2.14618 0.290757 0.0 
2.25222 0.371677 0.0 
-1.93063 2.91367 0.0 
1.52717 0.319618 0.0 
1.67964 -1.62237 0.0 
1.35962 -0.439169 0.0 
1.63007 -1.54335 0.0 
-5 -0.764504 0.0 
-1.61377 2.62271 0.0 
1.73865 -1.57725 0.0 
-0.908306 1.23669 0.0 
1.60766 0.330292 0.0 
1.82509 -1.63054 0.0 
1.90521 0.312457 0.0 
1.98719 -1.6488 0.0 
-0.528791 0.39225 0.0 
1.94978 -2.39003 0.0 
-0.472559 0.718465 0.0 
-1.28058 2.26572 0.0 
0.881581 -0.556282 0.0 
2.26369 0.42542 0.0 
0.917309 -1.69962 0.0 
0.853954 -1.60945 0.0 
1.30086 -0.404316 0.0 
1.99565 -2.46852 0.0 
1.49445 -1.47573 0.0 
1.68285 0.863315 0.0 
2.03074 -2.37549 0.0 
2.52279 -0.506167 0.0 
2.56049 -1.76899 0.0 
-1.52889 2.56597 0.0 
2.81136 -0.570221 0.0 
1.3688 -1.46095 0.0 
1.29524 -0.373946 0.0 
-0.350504 0.671928 0.0 
-0.590282 0.564035 0.0 
-0.054366 2.16706 0.0 
1.50819 1.22548 0.0 
-0.548222 0.453941 0.0 
2.19936 -2.5207 0.0 
12.2704 -7 0.0 
1.6811 -1.36761 0.0 
-0.449261 0.559535 0.0 
0.537017 -0.527614 0.0 
-0.00733391 0.553304 0.0 
0.494109 -0.356396 0.0 
-0.7939 0.0827441 0.0 
0.39888 0.467333 0.0 
-1.04288 1.34095 0.0 
0.605019 1.02824 0.0 
0.847559 0.374727 0.0 
1.00336 0.618307 0.0 
2.1955 0.399186 0.0 
0.656973 0.401158 0.0 
-0.998431 2.73564 0.0 
[...]
<PointData>
  <DataArray type = "Float64" Name="VitesseP1" NumberOfComponents="3" format="ascii">
1 0 0.0 
1.06628 0 0.0 
1.0198 0 0.0 
1 0 0.0 
0.99448 0.0160233 0.0 
0.996833 0.0113213 0.0 
0.995383 0.0138162 0.0 
1.03711 -0.00553488 0.0 
1.03788 -0.00862863 0.0 
1.04135 -0.00825196 0.0 
0.997686 0.0122639 0.0 
0.985858 0.0726541 0.0 
0.996522 0.0116534 0.0 
0.996731 0.0124535 0.0 
0.998862 0.0122699 0.0 
0.992164 0.217485 0.0 
1.0184 0.0544212 0.0 
1.05162 -0.0255297 0.0 
0.99879 0.0116826 0.0 
0.994909 0.0147462 0.0 
1.05507 -0.0263499 0.0 
0.998751 0.0136415 0.0 
1.15854 -0.0231009 0.0 
1.04891 0.0112757 0.0 
1.06056 -0.000477046 0.0 
0.998705 0.0132292 0.0 
0.94433 0.00876635 0.0 
1.06078 -0.0212782 0.0 
0.0600893 0.00525947 0.0 
0.988492 0.0316564 0.0 
1.13962 0.0644962 0.0 
1.10925 0.140399 0.0 
0.998757 0.0126309 0.0 
1.0293 -0.0212819 0.0 
0.941176 0.0123451 0.0 
1.00522 0.0309371 0.0 
0.936872 -0.0512294 0.0 
1.08152 0.000151775 0.0 
1.05308 0.00997007 0.0 
1.0521 -0.0143882 0.0 
1.05457 -0.00405902 0.0 
0.926712 0.151286 0.0 
1.07244 -0.00946395 0.0 
1.1236 0.0043618 0.0 
1.06527 0.00701562 0.0 
1.06107 -0.0130187 0.0 
1.05693 0.0332707 0.0 
1.05279 0.0248087 0.0 
1.19089 0.016009 0.0 
0.93936 0.0356409 0.0 
1.03678 -0.00513814 0.0 
1.00249 0.0126731 0.0 
0.999659 0.0178597 0.0 
1.03631 -0.00699837 0.0 
1.0377 0.242305 0.0 
0.065753 0.00237427 0.0 
1.03754 -0.00463728 0.0 
1.00271 0.0130821 0.0 
0.998961 0.0159255 0.0 
1.1619 -0.0202973 0.0 
0.240209 -0.018048 0.0 
1.00232 0.0133423 0.0 
1.0858 0.062476 0.0 
1.12177 0.118499 0.0 
0.623688 -0.0212088 0.0 
1.05904 -0.0261744 0.0 
1.09407 -0.0205062 0.0 
0.559184 0.134556 0.0 
0.862601 0.0852975 0.0 
1.1744 -0.0225269 0.0 
1.19963 -0.0347238 0.0 
1.06424 -0.010795 0.0 
0.998907 0.0143865 0.0 
1 0 0.0 
0.385163 -0.0348514 0.0 
1.00209 0.0129098 0.0 
0.967985 0.0106881 0.0 
0.998931 0.014742 0.0 
1.00174 0.0120729 0.0 
1.16763 0.0292101 0.0 
1.03589 0.0190508 0.0 
0.760038 -0.0395936 0.0 
0.949778 0.262539 0.0 
1.17278 0.111373 0.0 
0.945978 0.0142963 0.0 
0.969802 0.00898879 0.0 
1.00201 0.0125104 0.0 
1.06018 -0.0243839 0.0 
1.14197 0.0942742 0.0 
0.998994 0.0150939 0.0 
1.0418 0.0236098 0.0 
1.04605 -0.0146141 0.0 
1.09442 0.0779279 0.0 
0.935308 0.0699665 0.0 
1.12422 0.122611 0.0 
0.999733 0.0131903 0.0 
1.00225 0.0112995 0.0 
0.129214 -0.151009 0.0 
0.999085 0.0143314 0.0 
1.19191 -0.233907 0.0 
0.943882 0.02305 0.0 
0.918742 -0.0882818 0.0 
0.915708 -0.0744214 0.0 
1.04978 -0.00418477 0.0 
0.924211 -0.0781841 0.0 
0.966971 -0.00807928 0.0 
1.04606 -0.0164773 0.0 
1.06574 -0.00240814 0.0 
1.19693 0.0770414 0.0 
1.0384 -0.0162871 0.0 
0.919942 -0.0885127 0.0 
0.954628 -0.00356485 0.0 
0.168487 -0.00852018 0.0 
1.19678 0.0212373 0.0 
1.04375 -0.00426554 0.0 
1.03699 -0.0180714 0.0 
1.03467 -0.00987625 0.0 
1.04256 -0.0117704 0.0 
1.03376 -0.0129114 0.0 
1.03179 -0.0172666 0.0 
1.16464 0.182111 0.0 
1.03712 -0.00721096 0.0 
0.877142 0.125779 0.0 
0.998935 0.0213451 0.0 
1.03644 -0.0203703 0.0 
1.03645 0.00462519 0.0 
1.04101 -0.0225029 0.0 
1.19632 0.0851529 0.0 
1.06072 -0.0140625 0.0 
0.999903 0.018495 0.0 
1.0381 -0.00910945 0.0 
1.02731 0.0479074 0.0 
1.00062 0.0142574 0.0 
1.03915 -0.0203271 0.0 
1.05621 -0.0092049 0.0 
1.08733 0.187812 0.0 
1.06769 -0.072122 0.0 
0.261659 -0.0241906 0.0 
1.05388 0.0218511 0.0 
0.458679 -0.0380712 0.0 
0.453509 -0.0361158 0.0 
0.977516 0.195981 0.0 
0.067563 0.00241538 0.0 
1.03795 -0.0142875 0.0 
1.03048 -0.160061 0.0 
1.04379 0.0474642 0.0 
1.13847 0.117981 0.0 
0.998661 0.0199317 0.0 
0.101647 0.00486219 0.0 
0.998812 0.019013 0.0 
0.412254 -0.0165181 0.0 
0.99866 0.0149914 0.0 
1.04713 0.0258354 0.0 
0.984947 0.0248384 0.0 
0.973211 0.0345595 0.0 
1.05087 0.0368602 0.0 
0.998484 0.01625 0.0 
0.922707 -0.0794277 0.0 
0.983973 0.0212328 0.0 
1.06268 0.0204151 0.0 
0.981367 0.0256747 0.0 
1.03313 0.0309496 0.0 
1.03987 -0.170535 0.0 
0.998762 0.0165519 0.0 
1.0596 -0.00632414 0.0 
0.920105 -0.085793 0.0 
1.03254 0.0696941 0.0 
1.04078 0.000115463 0.0 
1.06511 -0.00644268 0.0 
0.916446 -0.0816137 0.0 
1.13158 0.109953 0.0 
0.999064 0.0173524 0.0 
0.927555 -0.0726236 0.0 
0.922096 -0.0824904 0.0 
0.998554 0.0130153 0.0 
1.04061 -0.00516828 0.0 
0.9993 0.0198587 0.0 
0.938769 0.151217 0.0 
1.12649 0.0464806 0.0 
0.998601 0.0153507 0.0 
0.637395 0.110375 0.0 
1.00582 0.0350767 0.0 
0.863173 0.0453195 0.0 
0.998773 0.0197336 0.0 
0.99911 0.0192679 0.0 
1.04761 -0.00620006 0.0 
0.973727 0.0241241 0.0 
1.06763 -0.0344942 0.0 
1.14147 0.198011 0.0 
1.10844 -0.12793 0.0 
0.87865 -0.0283903 0.0 
0.938025 0.0518532 0.0 
0.874874 0.016335 0.0 
1.0451 -0.00694028 0.0 
0.924004 -0.0730011 0.0 
0.933106 -0.0624817 0.0 
0.918797 -0.0741592 0.0 
0.584278 0.110719 0.0 
1.05306 -0.0067593 0.0 
0.0997962 0.0126834 0.0 
1.03805 0.264219 0.0 
1.04119 -0.0170314 0.0 
1.04693 -0.010772 0.0 
1.0518 -0.0137334 0.0 
0.0749864 0.0119994 0.0 
1.14141 0.101089 0.0 
1.04689 -0.0283239 0.0 
1.0498 0.016312 0.0 
0.941218 0.00859839 0.0 
1.03371 -0.0171207 0.0 
1.03491 -0.0132924 0.0 
0.998645 0.0161192 0.0 
1.0438 -0.0332493 0.0 
0.898764 -0.0655039 0.0 
0.998929 0.0152573 0.0 
0.909695 -0.0856343 0.0 
0.306775 -0.0220672 0.0 
0.887876 -0.0838143 0.0 
0.932417 0.0160924 0.0 
1.19771 0.036013 0.0 
1.04475 0.0189095 0.0 
0.375797 -0.0411957 0.0 
1.0942 0.085611 0.0 
0.998446 0.016329 0.0 
1.0189 0.222295 0.0 
0.951343 0.17686 0.0 
0.998753 0.0178072 0.0 
0.999194 0.0162201 0.0 
0.998636 0.0186221 0.0 
0.597213 -0.0303671 0.0 
0.967563 0.0251578 0.0 
0.965254 0.0226609 0.0 
0.415461 0.135746 0.0 
0.976159 0.0410336 0.0 
0.940254 -0.0443234 0.0 
0.302307 0.10159 0.0 
0.375827 0.184402 0.0 
1.0635 0.296099 0.0 
1.06885 -0.102051 0.0 
0.96702 0.0195859 0.0 
1.13412 0.0464842 0.0 
0.377204 -0.0319919 0.0 
1.00055 0.0120004 0.0 
0.990081 0.0340008 0.0 
1.00936 0.035624 0.0 
0.983504 0.031298 0.0 
0.999491 0.0169662 0.0 
0.918537 0.0213195 0.0 
1.05837 -0.130856 0.0 
0.918786 0.0755356 0.0 
0.908536 0.13172 0.0 
1.03985 0.0139391 0.0 
1.18814 0.03386 0.0 
0.829729 0.116501 0.0 
1.05402 -0.0328375 0.0 
0.602365 0.0187148 0.0 
0.975558 0.0436091 0.0 
0.932644 -0.0502306 0.0 
0.703067 0.194453 0.0 
0.899654 0.33864 0.0 
0.987048 0.0265194 0.0 
1.06347 -0.0130786 0.0 
0.967043 0.0861239 0.0 
1.1123 -0.0751908 0.0 
1.10792 0.0602656 0.0 
0.982869 0.0329449 0.0 
0.956103 0.0121305 0.0 
1.18949 0.039508 0.0 
0.999026 0.0233671 0.0 
1.07769 0.283052 0.0 
1.16103 0.031889 0.0 
1.12266 -0.0761209 0.0 
0.993988 0.0103096 0.0 
1.01697 0.0468867 0.0 
0.937225 0.00748529 0.0 
0.997173 0.00862758 0.0 
1.01901 0.283611 0.0 
1.05579 -0.0212647 0.0 
1.00396 0.150136 0.0 
0.924976 -0.00657796 0.0 
1.0336 0.0282602 0.0 
0.992587 0.0290523 0.0 
1.03472 0.0155007 0.0 
0.962663 0.0258393 0.0 
0.984755 0.0285054 0.0 
1.03261 0.00767463 0.0 
1 0 0.0 
1.06505 -0.00565973 0.0 
0.984464 0.0301539 0.0 
1.03978 -9.17786e-05 0.0 
0.987327 0.0283116 0.0 
1.03601 -0.0304891 0.0 
1.03723 -0.0268683 0.0 
1.19341 0.094919 0.0 
0.984564 0.026528 0.0 
1.12831 -0.0807156 0.0 
0.914788 -0.145929 0.0 
1.06334 -0.0013604 0.0 
1.1272 -0.113421 0.0 
1.14297 0.0484289 0.0 
0.93115 0.0273186 0.0 
1.03739 0.00389473 0.0 
0.995818 0.0175049 0.0 
0.979415 0.0394254 0.0 
0.983896 0.0113069 0.0 
0.995487 0.01057 0.0 
0.990065 0.0214297 0.0 
1.09198 0.166592 0.0 
0.948427 0.0245992 0.0 
0.998622 0.0179843 0.0 
1.14215 0.0558984 0.0 
1.16016 0.0356559 0.0 
0.998372 0.0172197 0.0 
0.935831 -0.055746 0.0 
0.999028 0.0144866 0.0 
1.04261 -0.127721 0.0 
0.9949 0.0180988 0.0 
1.00026 0.0112298 0.0 
0.980483 0.0285592 0.0 
0.988582 0.0285631 0.0 
0.996427 0.0217262 0.0 
0.991652 0.030432 0.0 
0.882195 -0.105606 0.0 
1 0 0.0 
1 0 0.0 
1.0291 0.0472553 0.0 
0.995058 0.0243869 0.0 
0.332562 -0.0332539 0.0 
0.142792 -0.00614999 0.0 
1.11702 0.215572 0.0 
0.965284 -0.0428635 0.0 
1.20026 0.0700604 0.0 
1.14098 0.0600502 0.0 
0.994321 0.0188084 0.0 
1.13828 0.0682409 0.0 
0.991628 0.0248789 0.0 
0.948477 -0.164039 0.0 
1 0 0.0 
1.15146 0.0307103 0.0 
0.96166 0.189411 0.0 
0.992587 0.0233922 0.0 
1.14296 -0.0835357 0.0 
1.04396 0.0132911 0.0 
1.0451 0.0148624 0.0 
0.982595 0.0292362 0.0 
0.99527 0.0115689 0.0 
1.12893 0.2309 0.0 
1.11641 0.0887663 0.0 
0.994061 0.019867 0.0 
0.25463 -0.0220569 0.0 
0.958316 0.00122693 0.0 
0.99199 0.0123621 0.0 
0.995196 0.0122867 0.0 
0.425515 -0.0286596 0.0 
0.985307 0.023448 0.0 
0.948738 -0.0292187 0.0 
0.9534 -0.00677653 0.0 
0.0870409 -0.000148057 0.0 
1 0 0.0 
1.0559 0 0.0 
1.00764 0.165456 0.0 
1.11938 -0.145022 0.0 
0.931907 0.035787 0.0 
1.11241 -0.129189 0.0 
0.397671 -0.0305092 0.0 
0.0760739 0.0016267 0.0 
0.989509 0.0130889 0.0 
0.985453 0.0219599 0.0 
0.98728 0.0162378 0.0 
0.991539 0.0145349 0.0 
1.10951 -0.172622 0.0 
1.06471 -0.0100543 0.0 
1.07923 0.145721 0.0 
1.11906 0.081591 0.0 
0.325725 -0.0303556 0.0 
0.956595 0.0790124 0.0 
1.00041 0.0205949 0.0 
1.11168 0.256026 0.0 
0.972221 0.0325753 0.0 
1.06394 -0.0138232 0.0 
0.959227 0.0378571 0.0 
1.06309 -0.00648016 0.0 
0.530384 -0.0376267 0.0 
0.0803614 0.00276462 0.0 
0.0860536 -0.00187925 0.0 
0.372353 -0.0340825 0.0 
0.999755 0.0126177 0.0 
0.0673915 0.00319488 0.0 
1.06011 -0.00187492 0.0 
1.16386 -0.0398297 0.0 
1.06515 -0.00462645 0.0 
1 0 0.0 
0.999606 0.0162783 0.0 
1.06384 0.000897002 0.0 
0.978848 0.0321297 0.0 
0.102562 0.0117283 0.0 
1.05959 0.00488359 0.0 
0.0978616 -0.000476572 0.0 
1.05704 0.0120923 0.0 
0.920233 0.027985 0.0 
1.03622 0.00157004 0.0 
0.957269 0.0582049 0.0 
0.999773 0.0215803 0.0 
1.19433 -0.108261 0.0 
0.717075 -0.0354695 0.0 
1.03991 -0.030596 0.0 
1.04312 -0.0356617 0.0 
1.07319 -0.0419362 0.0 
1.0471 0.00993497 0.0 
1.06424 -0.0121341 0.0 
1.17955 0.0126456 0.0 
1.03578 0.0129003 0.0 
1.2345 0.0962257 0.0 
1.03433 0.025974 0.0 
0.999807 0.0173317 0.0 
1.14808 0.113166 0.0 
1.06202 -0.0188574 0.0 
0.978506 -0.0429756 0.0 
0.947672 0.0739863 0.0 
0.944138 0.0373057 0.0 
1.01403 0.0429596 0.0 
1.12681 -0.00225369 0.0 
0.928806 0.0326404 0.0 
1.01411 -0.00215045 0.0 
1.05047 0 0.0 
1.06017 -0.00255951 0.0 
0.93375 0.0543277 0.0 
1.13905 -0.162678 0.0 
0.935577 0.160167 0.0 
1.10384 -0.194261 0.0 
0.952762 -0.01996 0.0 
1.08783 0.249922 0.0 
0.983075 0.0275429 0.0 
1.08622 0.103403 0.0 
0.796365 0.10059 0.0 
1.17523 0.102084 0.0 
0.530307 -0.0334023 0.0 
1.07821 0.185024 0.0 
1.00388 0.0216892 0.0 
1.05654 0.0147547 0.0 
1.04189 0.00793038 0.0 
1.05018 -0.00121366 0.0 
1.04779 -0.000220233 0.0 
0.133147 -0.0106701 0.0 
1.04017 0.00141129 0.0 
0.0808339 0.0151321 0.0 
1.08789 -0.0418763 0.0 
1.00385 0.0354838 0.0 
1.04443 0.00858004 0.0 
1 0 0.0 
0.983068 0.026377 0.0 
1.19373 0.090603 0.0 
0.772378 -0.0475997 0.0 
0.999461 0.0157135 0.0 
0.991523 0.0391976 0.0 
1.05211 0.00965367 0.0 
1.05622 0.00504792 0.0 
0.939811 0.188778 0.0 
0.785176 0.130015 0.0 
1.00413 0.0187386 0.0 
1.15318 0.140403 0.0 
0.999895 0.242829 0.0 
0.998982 0.0123038 0.0 
0.986036 0.0291819 0.0 
1.05379 0.000941007 0.0 
0.937776 0.124493 0.0 
0.27307 0.011996 0.0 
1.05282 0.00301298 0.0 
0.1752 0.0996094 0.0 
1.0531 -0.0010956 0.0 
1.05509 -0.0289939 0.0 
1.01521 0.0481569 0.0 
1.12803 -0.0432665 0.0 
1.04917 0.00189394 0.0 
0.956909 -0.00617392 0.0 
0.384989 0.012362 0.0 
1.06111 -0.0223296 0.0 
0.946467 -0.00137266 0.0 
0.999662 0.0154102 0.0 
1.05856 -0.0270888 0.0 
0.94172 0.0657061 0.0 
1.19498 -0.0425005 0.0 
0.369175 -0.0163686 0.0 
0.640227 -0.0396145 0.0 
0.940994 -0.00454903 0.0 
0.964646 0.272007 0.0 
0.252703 0.0480446 0.0 
0.997114 0.315567 0.0 
0.992372 -0.0255698 0.0 
1.07741 -0.0416089 0.0 
0.779235 -0.0219138 0.0 
0.358594 0.116422 0.0 
1.0997 0.0684583 0.0 
0.998603 0.012392 0.0 
0.626956 -0.0226553 0.0 
0.25253 0.033368 0.0 
0.914827 -0.0433573 0.0 
0.789905 -0.0407188 0.0 
1.02851 0.0427091 0.0 
0.998704 0.0119629 0.0 
1.02604 -0.0976078 0.0 
1.11944 -0.0314212 0.0 
1.16615 0.0193365 0.0 
0.084327 0.0022666 0.0 
0.936369 -0.0575382 0.0 
1.03326 0.036644 0.0 
1.06406 -0.00770723 0.0 
0.938013 -0.00893209 0.0 
0.144394 -0.0146592 0.0 
0.998714 0.0129026 0.0 
1.16581 0.0233906 0.0 
1.05779 -0.0264525 0.0 
0.963787 0.215753 0.0 
1.04916 0.0102295 0.0 
1.0651 0.00050635 0.0 
1.06491 0.00522308 0.0 
0.954468 0.0376114 0.0 
1.05945 -0.0242645 0.0 
0.998828 0.0141025 0.0 
0.95214 0.00710962 0.0 
1.14309 -0.0303768 0.0 
1.05074 0.0210448 0.0 
0.989257 0.00743031 0.0 
0.953344 0.0153701 0.0 
0.998863 0.0142943 0.0 
1.05536 0.00587913 0.0 
1.04118 -0.00364254 0.0 
1.05974 -0.0215986 0.0 
0.990423 0.00908757 0.0 
1.01902 0.0422912 0.0 
0.998839 0.0135036 0.0 
1.04813 -0.0262365 0.0 
1.06108 0.0192868 0.0 
0.0740872 -1.1999e-05 0.0 
0.0601634 0.0158664 0.0 
1.06445 0.0150923 0.0 
0.90564 -0.0564036 0.0 
0.895757 -0.0459498 0.0 
0.885581 0.119298 0.0 
0.999286 0.0142586 0.0 
0.998772 0.0141976 0.0 
0.962672 -0.0131728 0.0 
0.964894 -0.00192941 0.0 
1.03391 0.0221038 0.0 
0.963803 0.234622 0.0 
1.06683 0.151206 0.0 
1.02752 -0.0450353 0.0 
0.080144 -0.00430611 0.0 
1.15466 0.0205429 0.0 
1.06676 0.132388 0.0 
0.998642 0.0137022 0.0 
1.01485 0.0327836 0.0 
1.10641 -0.00769604 0.0 
0.982836 0.0210463 0.0 
0.934421 0.0464702 0.0 
1.03378 -0.0284163 0.0 
0.973342 0.0374632 0.0 
0.941109 0.108932 0.0 
0.934088 0.0589769 0.0 
0.820181 -0.0449792 0.0 
0.962807 0.0071703 0.0 
0.795654 -0.0468856 0.0 
1.00086 0.0185186 0.0 
1.02905 0.0437171 0.0 
0.953683 -0.0101544 0.0 
0.961469 -0.000976158 0.0 
0.922547 0.0342496 0.0 
1.10176 0.248249 0.0 
0.972293 0.00614514 0.0 
0.943112 0.291564 0.0 
0.945338 0.0328401 0.0 
0.975234 0.226119 0.0 
0.850596 0.285843 0.0 
0.995139 0.00765144 0.0 
1.00212 0 0.0 
0.998774 0.0123406 0.0 
0.977235 0.00161448 0.0 
0.897635 0.153309 0.0 
0.138309 0.0082253 0.0 
1.01025 0.0441613 0.0 
0.980753 0.00723524 0.0 
0.999369 0.0127397 0.0 
0.916008 -0.0718126 0.0 
0.916564 0.0330401 0.0 
1.20005 -0.0309115 0.0 
0.99864 0.0126241 0.0 
1.01199 0.0957289 0.0 
0.74946 -0.078711 0.0 
1.03532 -0.0230674 0.0 
0.936146 0.0637045 0.0 
0.995185 0.0164383 0.0 
0.944368 0.0276012 0.0 
0.990939 0.0202603 0.0 
0.0750344 0.0106031 0.0 
0.743231 -0.0684783 0.0 
1.03744 -0.00596133 0.0 
1.13825 0.0913113 0.0 
1.14164 -0.0350749 0.0 
0.997672 0.0108707 0.0 
0.982048 0.0187626 0.0 
1.00606 0.201499 0.0 
1.11399 0.15645 0.0 
0.58688 0.0954338 0.0 
0.951111 0.188938 0.0 
0.981427 0.0191262 0.0 
0.386338 -0.0272591 0.0 
0.982402 0.022064 0.0 
0.997237 0.0129553 0.0 
1.00021 0.0199532 0.0 
0.335154 -0.0269805 0.0 
0.292446 -0.0194388 0.0 
0.981547 0.0303351 0.0 
0.340611 0.0581883 0.0 
1.19218 0.0861978 0.0 
1.00951 0.0436043 0.0 
0.980694 0.0325931 0.0 
0.999582 0.0198405 0.0 
0.977911 0.0113189 0.0 
0.930241 0.0687459 0.0 
0.97659 0.0258456 0.0 
0.852152 0.285047 0.0 
0.52599 -0.0429464 0.0 
0.318819 -0.0141012 0.0 
0.968162 0.0135901 0.0 
0.974779 0.0122223 0.0 
1.05434 0.204141 0.0 
0.388533 -0.0338211 0.0 
0.939798 0.021061 0.0 
1.03701 -0.0373623 0.0 
0.98311 0.24554 0.0 
0.99914 0.0138912 0.0 
0.922486 0.081842 0.0 
0.972189 0.0311774 0.0 
0.930093 0.143228 0.0 
0.962489 0.155671 0.0 
1.00897 0.25488 0.0 
0.72321 -0.0425936 0.0 
0.93744 -0.0522812 0.0 
1.10628 0.0625984 0.0 
0.471281 0.0936627 0.0 
0.926591 -0.0596075 0.0 
0.19842 -0.0135192 0.0 
0.899168 -0.012817 0.0 
0.75218 0.13579 0.0 
0.915343 -0.0663825 0.0 
0.92241 -0.0560989 0.0 
0.616507 0.1652 0.0 
1.0486 0.00674486 0.0 
0.940868 0.173273 0.0 
0.879738 -0.00487635 0.0 
0.928512 -0.0536761 0.0 
1.036 -0.00773908 0.0 
0.342601 0.041612 0.0 
1.03486 -0.0101165 0.0 
0.866108 0.007447 0.0 
0.898997 0.217108 0.0 
1.04188 -0.000969125 0.0 
0.906919 -0.0880495 0.0 
0.923804 0.182473 0.0 
0.375322 -0.0324979 0.0 
1.11949 0.0662642 0.0 
1.03685 0.169386 0.0 
0.831698 0.380782 0.0 
1.1019 0.163891 0.0 
1.06486 0.259332 0.0 
0.969407 -0.0428173 0.0 
0.720552 -0.090653 0.0 
0.9777 0.0334448 0.0 
0.528166 0.06205 0.0 
0.918681 -0.0525976 0.0 
1.03807 0.0655528 0.0 
0.271879 -0.0281567 0.0 
1.04403 0.263239 0.0 
1.05196 0.0396085 0.0 
0.878993 0.10529 0.0 
1.00495 0.02221 0.0 
0.892728 0.0669867 0.0 
0.225756 -0.0220694 0.0 
0.853289 0.0764245 0.0 
0.949376 0.0369549 0.0 
0.947227 0.00396219 0.0 
1.17149 -0.0363049 0.0 
0.764002 0.33531 0.0 
0.84765 0.0891359 0.0 
1.02732 0.0730192 0.0 
1.08182 -0.0945483 0.0 
0.92135 -0.046829 0.0 
1.04056 0.271507 0.0 
0.964685 0.0169812 0.0 
0.995389 0.0406266 0.0 
0.910223 0.0770516 0.0 
0.92453 0.112635 0.0 
0.910633 0.0354817 0.0 
1.009 0.0280361 0.0 
0.919772 0.105958 0.0 
0.917444 0.220726 0.0 
0.999074 0.0129702 0.0 
1.09129 -0.0697441 0.0 
0.391553 -0.0332721 0.0 
1.05464 0.250655 0.0 
0.966142 0.202844 0.0 
0.807117 0.151234 0.0 
0.827004 0.0382294 0.0 
0.886259 0.0298891 0.0 
1.04234 0.304917 0.0 
0.999454 0.0176699 0.0 
1.12434 0.138509 0.0 
1.03313 0.226023 0.0 
0.886762 -0.0482934 0.0 
0.922873 -0.00185278 0.0 
0.858389 0.15838 0.0 
0.910895 0.0207204 0.0 
0.885156 0.0149062 0.0 
0.932559 -0.0459944 0.0 
0.934173 0.207117 0.0 
0.995451 0.0306897 0.0 
0.999443 0.0151745 0.0 
0.193608 -0.0176578 0.0 
0.172559 -0.0155011 0.0 
0.912856 0.0278305 0.0 
0.527814 0.153748 0.0 
1.03526 -0.00897245 0.0 
0.921881 -0.0163094 0.0 
0.977932 -0.000877306 0.0 
0.902585 0.0765177 0.0 
0.841968 0.00677331 0.0 
1.08112 -0.0661754 0.0 
0.95497 0.00807037 0.0 
0.975483 0.0092261 0.0 
1.08439 0.267241 0.0 
0.317876 -0.0240043 0.0 
0.930722 0.300102 0.0 
0.972939 0.0027415 0.0 
0.988459 0.0543796 0.0 
1.06885 -0.228878 0.0 
0.968909 0.00478224 0.0 
0.961651 0.0126577 0.0 
0.997648 0.0135171 0.0 
1.0356 -0.00967843 0.0 
0.802701 0.108018 0.0 
0.904414 0.0184555 0.0 
0.990919 0.00557637 0.0 
1.02836 -0.182266 0.0 
0.995066 0.0157075 0.0 
0.935421 0.0241963 0.0 
0.813233 0.168024 0.0 
0.949883 -0.00840349 0.0 
0.998085 0.010349 0.0 
0.938649 0.00480393 0.0 
0.189242 0.128616 0.0 
0.943765 -0.00830672 0.0 
1.06218 -0.00894026 0.0 
0.954025 0.288508 0.0 
0.129967 -0.0109572 0.0 
1.10161 0.254449 0.0 
0.988006 0.0150343 0.0 
0.916095 -0.124749 0.0 
0.968793 0.001942 0.0 
0.959552 0.00924146 0.0 
0.959788 0.00463621 0.0 
0.5447 0.134926 0.0 
0.961822 0.00195251 0.0 
0.955876 -0.0134935 0.0 
0.653709 0.184222 0.0 
1.03263 -0.0134861 0.0 
1.03231 0.0462297 0.0 
0.997887 0.265641 0.0 
0.980864 0.0210461 0.0 
0.975254 0.029237 0.0 
0.964603 0.00403494 0.0 
0.893447 0.0129724 0.0 
0.958819 -0.0178003 0.0 
0.120639 0.00204755 0.0 
0.968644 -0.000128418 0.0 
1.0561 0.0175652 0.0 
0.876247 0.167935 0.0 
0.996422 0.0122771 0.0 
1.06032 0.0268092 0.0 
1.05629 0.0945809 0.0 
1.10168 -0.0697913 0.0 
1.0954 0.103914 0.0 
0.976481 -0.00285128 0.0 
0.876915 0.182878 0.0 
0.996547 0.0147295 0.0 
0.996896 0.011351 0.0 
0.89028 -0.0411656 0.0 
0.978515 0.0260136 0.0 
1.16404 -0.22645 0.0 
0.72814 0.00206691 0.0 
0.941987 0.0416268 0.0 
1.01764 0.302346 0.0 
0.908815 0.353086 0.0 
0.839142 0.132028 0.0 
1.15763 0.0717696 0.0 
0.154401 0.134229 0.0 
1.01896 0.289286 0.0 
1.0671 0.265369 0.0 
1.03631 -0.0068917 0.0 
0.938793 0.0941778 0.0 
0.0475986 0.00943305 0.0 
1.17633 0.145131 0.0 
0.977585 0.0321102 0.0 
0.910024 0.121951 0.0 
1.1276 0.21886 0.0 
0.851493 0.124219 0.0 
-0.0351944 -0.0217908 0.0 
0.978687 0.0302462 0.0 
0.925104 0.0736103 0.0 
0.748534 0.140302 0.0 
0.979542 0.0269878 0.0 
0.911826 0.149986 0.0 
0.9958 0.0127656 0.0 
0.903152 0.101403 0.0 
0.979031 0.028157 0.0 
0.85401 0.0556117 0.0 
0.831193 0.0225033 0.0 
0.904316 0.164046 0.0 
0.998705 0.0116326 0.0 
0.968837 -0.00461314 0.0 
0.980012 0.0253279 0.0 
0.998989 0.0179326 0.0 
0.962671 -0.00464888 0.0 
0.961622 -0.00833128 0.0 
0.966133 -0.00410278 0.0 
0.938543 -0.0413589 0.0 
0.925875 0.0581285 0.0 
0.926483 0.088056 0.0 
1.03717 -0.00206066 0.0 
0.989534 0.032357 0.0 
1.05889 0.0282354 0.0 
0.999081 0.0148281 0.0 
1.07527 -0.00482894 0.0 
1.00455 0.0799729 0.0 
0.94967 0.0133751 0.0 
0.976753 0.027314 0.0 
1.04987 -0.160541 0.0 
1.10248 0.242315 0.0 
1.12487 0.2304 0.0 
0.933788 -0.0321275 0.0 
0.998977 0.0143503 0.0 
0.951159 0.0110315 0.0 
0.996293 0.0138689 0.0 
0.979532 0.00550691 0.0 
1.05221 0.0112732 0.0 
1.04879 -0.171249 0.0 
0.120763 -0.00338323 0.0 
0.669437 0.136686 0.0 