<VTKFile type="UnstructuredGrid" version="0.1" byte_order="LittleEndian">
  <UnstructuredGrid>
    <Piece NumberOfPoints="9712" NumberOfCells="19403">
      <Points>
        <DataArray type = "Float64" NumberOfComponents="3" format="ascii">
-5 -7 0.0 
15.5 -7 0.0 
15.5 7 0.0 
-5 7 0.0 
-1.6546 1.77742 0.0 
-2.13867 1.86504 0.0 
-1.83467 1.79143 0.0 
1.47969 -2.21179 0.0 
1.36003 -2.38618 0.0 
1.4346 -2.45048 0.0 
-2.04214 1.94165 0.0 
-0.20425 1.17338 0.0 
-2.07648 1.81911 0.0 
-2.00827 1.89081 0.0 
-2.05492 1.98872 0.0 
0.192693 0.536219 0.0 
0.154285 1.75648 0.0 
1.1379 -1.62057 0.0 
-2.11226 1.96977 0.0 
-1.74119 1.75327 0.0 
1.14499 -1.58184 0.0 
-1.94373 2.37229 0.0 
1.50619 -0.664239 0.0 
1.99658 -1.76705 0.0 
1.7229 -1.18344 0.0 
-1.97759 2.52091 0.0 
-0.768046 0.387136 0.0 
1.32657 -1.43969 0.0 
1.90142 0.24821 0.0 
-0.93264 1.51038 0.0 
1.09557 0.967223 0.0 
0.627111 0.757352 0.0 
-2.05707 2.31394 0.0 
1.34027 -2.45136 0.0 
-0.725097 0.397516 0.0 
-0.666094 2.30428 0.0 
-0.73829 -0.279965 0.0 
1.73336 -1.08822 0.0 
1.88466 -1.24421 0.0 
1.50539 -1.23752 0.0 
1.65978 -1.30759 0.0 
-0.0409718 0.542603 0.0 
1.6005 -1.1227 0.0 
1.78439 -0.941488 0.0 
1.86015 -1.54236 0.0 
1.49308 -1.40058 0.0 
2.34892 -1.47149 0.0 
2.13832 -1.3246 0.0 
1.73061 0.751302 0.0 
-0.580328 0.526903 0.0 
1.51013 -2.1595 0.0 
-1.65424 3.45779 0.0 
-1.51397 2.46352 0.0 
1.42773 -2.17867 0.0 
0.304353 0.497878 0.0 
2.24628 0.228293 0.0 
1.51258 -2.27933 0.0 
-1.60346 3.44299 0.0 
-1.71408 2.36227 0.0 
2.17421 0.530405 0.0 
2.42 0.316451 0.0 
-1.63642 3.31911 0.0 
2.53942 -0.995036 0.0 
0.750003 0.810439 0.0 
2.04736 0.40918 0.0 
1.19615 -1.50641 0.0 
2.13474 0.494063 0.0 
0.547924 0.306722 0.0 
-0.2059 0.361394 0.0 
2.2127 0.547693 0.0 
1.41442 -0.597105 0.0 
1.52233 -1.46252 0.0 
-1.84114 2.53924 0.0 
-5 -2.53894 0.0 
2.32127 0.371156 0.0 
-1.69186 3.33379 0.0 
-0.964779 0.566136 0.0 
-1.81311 2.48387 0.0 
-1.78557 3.38304 0.0 
1.48278 0.914136 0.0 
2.51531 -1.89689 0.0 
1.20982 -0.330514 0.0 
0.408434 0.319657 0.0 
0.95023 0.60993 0.0 
-0.752349 0.440796 0.0 
-0.998248 0.564019 0.0 
-1.73165 3.36299 0.0 
1.24353 -1.49063 0.0 
0.942095 0.817189 0.0 
-1.77816 2.47096 0.0 
2.48183 -1.95479 0.0 
1.33574 -1.77854 0.0 
0.823335 1.12085 0.0 
-0.36308 0.598468 0.0 
0.745466 0.783414 0.0 
-1.88344 2.8521 0.0 
-1.79794 3.52221 0.0 
3.0087 0.272815 0.0 
-1.81486 2.66014 0.0 
0.375911 -0.403668 0.0 
-0.68323 0.487288 0.0 
-0.34187 -0.274923 0.0 
-0.293875 -0.201368 0.0 
1.61018 -1.767 0.0 
-0.448275 -0.347267 0.0 
-1.08687 0.352015 0.0 
1.29257 -1.76345 0.0 
1.67658 -1.49551 0.0 
1.19193 0.533009 0.0 
1.21582 -1.91654 0.0 
-0.36438 -0.346225 0.0 
-0.92534 0.330346 0.0 
2.3836 0.287756 0.0 
1.68841 0.639887 0.0 
1.59001 -1.89458 0.0 
1.14818 -1.92143 0.0 
1.28996 -2.19426 0.0 
1.37603 -1.8763 0.0 
1.23834 -2.09141 0.0 
1.11702 -2.06287 0.0 
0.691829 0.463808 0.0 
1.46523 -2.03459 0.0 
-0.123547 0.424486 0.0 
-1.3311 2.12174 0.0 
1.08169 -1.90074 0.0 
1.87975 -2.15971 0.0 
1.10131 -1.78593 0.0 
1.13722 0.534683 0.0 
1.42465 -1.59031 0.0 
-1.45435 2.47344 0.0 
1.41998 -1.98207 0.0 
0.463917 1.8787 0.0 
-1.72896 2.89571 0.0 
1.12419 -1.84975 0.0 
1.59054 -1.20634 0.0 
0.46124 0.621002 0.0 
0.806438 -1.00204 0.0 
2.1804 0.349761 0.0 
2.21142 -1.6418 0.0 
1.10152 -0.274558 0.0 
2.23388 0.387302 0.0 
0.137769 0.567007 0.0 
1.88736 0.267391 0.0 
1.26821 -1.94267 0.0 
0.21033 -0.605707 0.0 
2.61094 -1.50046 0.0 
0.819837 0.743337 0.0 
-1.4303 2.07799 0.0 
1.82013 0.322126 0.0 
-1.47649 2.2099 0.0 
1.15745 -0.274223 0.0 
-1.81198 2.24994 0.0 
2.34337 -1.67775 0.0 
-1.13329 1.37877 0.0 
-0.828215 1.05292 0.0 
2.46752 -1.53452 0.0 
-1.69915 2.18529 0.0 
-0.404416 -0.286271 0.0 
-1.23501 1.31766 0.0 
2.11757 -1.50659 0.0 
-1.08535 1.28274 0.0 
2.58548 -1.70783 0.0 
0.24729 -0.572345 0.0 
-1.66963 2.25319 0.0 
1.58322 -1.62308 0.0 
-0.367923 -0.306026 0.0 
0.391521 1.44485 0.0 
1.88977 -2.46319 0.0 
1.5943 -1.53613 0.0 
-0.357143 -0.23651 0.0 
0.82621 0.80563 0.0 
-1.59261 2.31884 0.0 
-0.47244 -0.307516 0.0 
-0.40334 -0.326688 0.0 
-2.00063 2.11543 0.0 
1.55514 -1.95078 0.0 
-1.40431 2.26352 0.0 
-0.0265928 0.573714 0.0 
1.17093 1.10579 0.0 
-1.77907 2.22111 0.0 
0.682788 0.329642 0.0 
-0.54475 2.15572 0.0 
-0.288592 0.289433 0.0 
-1.43199 2.16349 0.0 
-1.45029 2.25134 0.0 
1.5535 -1.79992 0.0 
-1.06406 1.08381 0.0 
1.72954 1.44966 0.0 
0.582806 0.515814 0.0 
0.582876 -0.679913 0.0 
1.32351 -0.355916 0.0 
-0.47505 0.577092 0.0 
-0.371167 0.227715 0.0 
1.52235 -1.8529 0.0 
-0.429822 -0.244811 0.0 
-0.53237 -0.24648 0.0 
-0.393983 -0.210364 0.0 
0.652895 0.317361 0.0 
1.55812 -1.70765 0.0 
1.63021 0.325622 0.0 
0.442731 0.358729 0.0 
1.22925 -1.85192 0.0 
1.43517 -1.79082 0.0 
1.39317 -1.6984 0.0 
1.62965 0.295952 0.0 
0.905462 0.793465 0.0 
1.04036 -1.64811 0.0 
2.1131 -1.72466 0.0 
-0.743911 0.369492 0.0 
1.14427 -1.99314 0.0 
1.26033 -2.0209 0.0 
-1.70955 2.07308 0.0 
0.910023 -1.62976 0.0 
-0.313059 -0.0954838 0.0 
-1.77334 2.3988 0.0 
-0.311958 -0.24042 0.0 
2.53315 0.325608 0.0 
-0.273728 -0.226719 0.0 
-0.646401 0.379627 0.0 
1.52426 0.616074 0.0 
2.21703 -1.79499 0.0 
2.71108 0.312216 0.0 
0.759924 1.093 0.0 
-1.69271 2.12368 0.0 
0.255794 0.540969 0.0 
0.0534699 0.562158 0.0 
-1.5679 2.22408 0.0 
-1.66906 2.45165 0.0 
-1.51895 2.09449 0.0 
2.16948 0.408238 0.0 
-0.818806 0.680638 0.0 
-0.826868 0.642087 0.0 
0.519855 0.276992 0.0 
-0.716682 1.18602 0.0 
-0.649974 -0.148775 0.0 
0.457368 0.256619 0.0 
0.517407 0.248194 0.0 
0.327129 0.39802 0.0 
0.533249 -0.878832 0.0 
-0.870735 0.634904 0.0 
1.19219 1.07557 0.0 
2.35922 0.366028 0.0 
-1.66911 3.66723 0.0 
-0.857603 1.54934 0.0 
-0.379189 2.30131 0.0 
-0.941007 1.36523 0.0 
-1.58662 2.49682 0.0 
-0.545297 0.352587 0.0 
0.327944 -0.744683 0.0 
-0.312756 0.524741 0.0 
-0.107843 0.506233 0.0 
2.13378 -2.36584 0.0 
1.52689 0.686953 0.0 
-0.119983 0.327909 0.0 
1.02161 -1.53072 0.0 
1.51507 0.39695 0.0 
-0.674484 1.02605 0.0 
-0.564724 -0.148435 0.0 
0.409388 0.290913 0.0 
0.252349 0.30842 0.0 
-1.09282 1.45998 0.0 
1.45674 -1.54484 0.0 
-0.266777 0.782169 0.0 
0.91327 -0.874389 0.0 
1.01208 1.13309 0.0 
-0.897136 1.35063 0.0 
-0.846484 0.489353 0.0 
1.47563 0.663768 0.0 
-1.22282 2.05021 0.0 
0.348906 0.416714 0.0 
1.41913 0.964648 0.0 
0.933289 -0.839038 0.0 
-1.85066 1.40221 0.0 
0.142477 1.99435 0.0 
-0.717809 0.341194 0.0 
-2.21177 1.41584 0.0 
0.396571 0.350929 0.0 
1.25171 -1.60721 0.0 
0.736798 0.393502 0.0 
-0.661427 0.19031 0.0 
2.18751 -2.32769 0.0 
-1.00908 1.6747 0.0 
2.21416 -2.07269 0.0 
-0.779194 0.642011 0.0 
-1.02312 1.3939 0.0 
2.08809 -2.24876 0.0 
-5 -4.48794 0.0 
1.61792 -1.46215 0.0 
-0.974627 1.38947 0.0 
1.81166 -2.48446 0.0 
-1.03635 1.47474 0.0 
0.869004 -1.74424 0.0 
0.956579 -1.78598 0.0 
1.07495 0.540689 0.0 
-1.08005 1.37763 0.0 
0.914755 -0.803058 0.0 
0.611759 -0.305322 0.0 
1.70043 -1.41356 0.0 
0.75708 -0.631542 0.0 
1.21215 1.01979 0.0 
-0.586902 0.440014 0.0 
1.9251 -2.56336 0.0 
-1.58261 1.91091 0.0 
-0.746541 1.26087 0.0 
-1.49915 1.13657 0.0 
-1.46675 0.971536 0.0 
-1.05881 0.930935 0.0 
0.71826 0.415078 0.0 
-0.701697 0.526982 0.0 
-1.56194 2.05157 0.0 
1.15988 0.991244 0.0 
1.38676 0.949615 0.0 
-1.61697 2.02689 0.0 
1.13748 -0.357331 0.0 
-1.8456 2.04561 0.0 
0.253686 -0.756334 0.0 
-1.53603 1.86509 0.0 
-1.43465 0.924137 0.0 
-1.00273 1.27416 0.0 
-1.03063 1.5132 0.0 
-1.32483 1.94769 0.0 
-0.965552 1.61445 0.0 
-0.239859 -0.245939 0.0 
-5 3.01776 0.0 
-5 -0.248741 0.0 
0.517491 1.87079 0.0 
-1.18776 1.8875 0.0 
2.27458 0.36201 0.0 
1.9794 0.331487 0.0 
0.503086 0.510306 0.0 
1.26387 -0.370702 0.0 
1.24483 0.550197 0.0 
1.12871 0.979556 0.0 
-1.48659 1.83259 0.0 
1.0672 0.958366 0.0 
-1.16856 1.61214 0.0 
-0.218637 -0.230696 0.0 
-5 1.81431 0.0 
1.37014 1.04658 0.0 
0.0950623 0.557621 0.0 
-1.23613 1.67303 0.0 
0.953731 -0.709843 0.0 
2.07568 -1.85385 0.0 
2.10836 -1.82014 0.0 
-0.994952 1.33552 0.0 
-1.86986 1.52312 0.0 
0.515812 0.447542 0.0 
0.842446 0.992035 0.0 
-1.42353 1.8223 0.0 
2.091 0.354014 0.0 
-0.937663 0.401428 0.0 
-1.69305 1.41997 0.0 
-1.82465 1.55127 0.0 
2.15192 0.384657 0.0 
-1.17972 1.37998 0.0 
-0.718866 -0.0130647 0.0 
-0.927867 0.290435 0.0 
1.56509 0.300406 0.0 
-5 -3.04052 0.0 
9.98027 -7 0.0 
0.176009 0.694641 0.0 
0.597997 -0.559941 0.0 
-0.546583 0.4849 0.0 
0.602022 -0.657834 0.0 
2.17737 0.379672 0.0 
1.89809 0.287017 0.0 
-1.58883 1.35796 0.0 
-1.2284 1.37063 0.0 
-1.43937 1.35342 0.0 
-1.59664 1.47263 0.0 
0.577431 -0.368705 0.0 
1.5263 -1.51093 0.0 
0.479666 0.796509 0.0 
0.894995 1.01463 0.0 
2.22312 0.363016 0.0 
-0.320562 0.726481 0.0 
-1.30188 2.41386 0.0 
0.43802 0.434693 0.0 
-0.761697 0.762024 0.0 
1.45688 -1.49591 0.0 
-0.65072 0.676835 0.0 
1.6097 -1.41509 0.0 
2.25768 0.399237 0.0 
1.85518 0.299709 0.0 
2.14618 0.290757 0.0 
2.25222 0.371677 0.0 
-1.93063 2.91367 0.0 
1.52717 0.319618 0.0 
1.67964 -1.62237 0.0 
1.35962 -0.439169 0.0 
1.63007 -1.54335 0.0 
-5 -0.764504 0.0 
-1.61377 2.62271 0.0 
1.73865 -1.57725 0.0 
-0.908306 1.23669 0.0 
1.60766 0.330292 0.0 
1.82509 -1.63054 0.0 
1.90521 0.312457 0.0 
1.98719 -1.6488 0.0 
-0.528791 0.39225 0.0 
1.94978 -2.39003 0.0 
-0.472559 0.718465 0.0 
-1.28058 2.26572 0.0 
0.881581 -0.556282 0.0 
2.26369 0.42542 0.0 
0.917309 -1.69962 0.0 
0.853954 -1.60945 0.0 
1.30086 -0.404316 0.0 
1.99565 -2.46852 0.0 
1.49445 -1.47573 0.0 
1.68285 0.863315 0.0 
2.03074 -2.37549 0.0 
2.52279 -0.506167 0.0 
2.56049 -1.76899 0.0 
-1.52889 2.56597 0.0 
2.81136 -0.570221 0.0 
1.3688 -1.46095 0.0 
1.29524 -0.373946 0.0 
-0.350504 0.671928 0.0 
-0.590282 0.564035 0.0 
-0.054366 2.16706 0.0 
1.50819 1.22548 0.0 
-0.548222 0.453941 0.0 
2.19936 -2.5207 0.0 
12.2704 -7 0.0 
1.6811 -1.36761 0.0 
-0.449261 0.559535 0.0 
0.537017 -0.527614 0.0 
-0.00733391 0.553304 0.0 
0.494109 -0.356396 0.0 
-0.7939 0.0827441 0.0 
0.39888 0.467333 0.0 
-1.04288 1.34095 0.0 
0.605019 1.02824 0.0 
0.847559 0.374727 0.0 
1.00336 0.618307 0.0 
2.1955 0.399186 0.0 
0.656973 0.401158 0.0 
-0.998431 2.73564 0.0 
[...]
<PointData>
  <DataArray type = "Float64" Name="VitesseP1" NumberOfComponents="3" format="ascii">
1 0 0.0 
1.06253 0 0.0 
1.01836 0 0.0 
1 0 0.0 
0.994464 0.0160714 0.0 
0.996823 0.0113606 0.0 
0.995369 0.0138612 0.0 
1.0364 -0.00569651 0.0 
1.03704 -0.00903018 0.0 
1.04024 -0.00864282 0.0 
0.997676 0.0123061 0.0 
0.985771 0.0726434 0.0 
0.996511 0.0116935 0.0 
0.996719 0.0124959 0.0 
0.998854 0.0123125 0.0 
0.992194 0.217339 0.0 
1.01823 0.0545162 0.0 
1.05165 -0.0252303 0.0 
0.998782 0.0117235 0.0 
0.994895 0.0147925 0.0 
1.05491 -0.0260161 0.0 
0.998737 0.0136916 0.0 
1.15823 -0.0210119 0.0 
1.04876 0.0110479 0.0 
1.05945 7.03973e-05 0.0 
0.99869 0.0132798 0.0 
0.944332 0.00877944 0.0 
1.06026 -0.0208487 0.0 
0.0784885 0.0171511 0.0 
0.988458 0.0316977 0.0 
1.13914 0.0644373 0.0 
1.10904 0.140112 0.0 
0.998745 0.0126776 0.0 
1.0287 -0.0215846 0.0 
0.941179 0.0123547 0.0 
1.00518 0.0310178 0.0 
0.936906 -0.0511774 0.0 
1.08023 0.000876374 0.0 
1.05188 0.0101676 0.0 
1.05144 -0.0137696 0.0 
1.05374 -0.00363323 0.0 
0.926728 0.15121 0.0 
1.07148 -0.00869017 0.0 
1.12193 0.00542448 0.0 
1.06439 0.00698626 0.0 
1.06039 -0.0125953 0.0 
1.05587 0.0324966 0.0 
1.05154 0.0243894 0.0 
1.19139 0.0181489 0.0 
0.939363 0.0356352 0.0 
1.03617 -0.00525704 0.0 
1.00249 0.0127366 0.0 
0.999639 0.0179219 0.0 
1.03572 -0.00713944 0.0 
1.03775 0.242105 0.0 
0.0720884 0.0453831 0.0 
1.03668 -0.00481486 0.0 
1.00271 0.0131479 0.0 
0.998944 0.0159813 0.0 
1.18469 -0.0153617 0.0 
0.269523 -0.00043419 0.0 
1.00231 0.0134079 0.0 
1.08478 0.0601103 0.0 
1.12146 0.118227 0.0 
0.580369 -0.00255406 0.0 
1.05866 -0.0257859 0.0 
1.10954 -0.00860273 0.0 
0.559975 0.134373 0.0 
0.862628 0.0852588 0.0 
1.20029 -0.0226409 0.0 
1.19917 -0.0326946 0.0 
1.06353 -0.0104509 0.0 
0.99889 0.014441 0.0 
1 0 0.0 
0.421874 -0.00600824 0.0 
1.00208 0.0129723 0.0 
0.96798 0.010709 0.0 
0.998915 0.0147968 0.0 
1.00173 0.0121301 0.0 
1.16751 0.0296709 0.0 
1.03561 0.0182399 0.0 
0.763993 -0.0395065 0.0 
0.95015 0.262367 0.0 
1.17219 0.110861 0.0 
0.945978 0.0143066 0.0 
0.969797 0.0090115 0.0 
1.00201 0.01257 0.0 
1.05974 -0.0239861 0.0 
1.14149 0.0940401 0.0 
0.998978 0.0151494 0.0 
1.04143 0.0228419 0.0 
1.04618 -0.0144721 0.0 
1.09408 0.0778392 0.0 
0.935311 0.0699376 0.0 
1.12391 0.122316 0.0 
0.999717 0.0132457 0.0 
1.00226 0.0113563 0.0 
0.135735 -0.17231 0.0 
0.999068 0.0143878 0.0 
1.19223 -0.233786 0.0 
0.943883 0.0230539 0.0 
0.918804 -0.0882492 0.0 
0.915786 -0.0743998 0.0 
1.04973 -0.0041271 0.0 
0.924256 -0.0781429 0.0 
0.966964 -0.00805045 0.0 
1.04623 -0.0163131 0.0 
1.0649 -0.00220736 0.0 
1.19571 0.0766706 0.0 
1.03833 -0.0162043 0.0 
0.919996 -0.0884708 0.0 
0.954626 -0.00354058 0.0 
0.183538 0.018512 0.0 
1.19628 0.0241756 0.0 
1.04348 -0.00425884 0.0 
1.03697 -0.0179831 0.0 
1.03418 -0.0100383 0.0 
1.04245 -0.0116981 0.0 
1.03347 -0.0129604 0.0 
1.03163 -0.017221 0.0 
1.16465 0.181523 0.0 
1.03675 -0.00725663 0.0 
0.877169 0.125725 0.0 
0.998915 0.0214052 0.0 
1.03648 -0.0202493 0.0 
1.03582 0.00452476 0.0 
1.04125 -0.0223099 0.0 
1.19525 0.0846856 0.0 
1.06034 -0.0137947 0.0 
0.999882 0.0185587 0.0 
1.03783 -0.00911421 0.0 
1.02705 0.0480097 0.0 
1.00061 0.0143188 0.0 
1.03925 -0.0201784 0.0 
1.05537 -0.00857763 0.0 
1.08728 0.187535 0.0 
1.06769 -0.0716475 0.0 
0.281606 0.0145564 0.0 
1.05344 0.0213579 0.0 
0.460415 -0.0383947 0.0 
0.465922 -0.00386955 0.0 
0.977534 0.195856 0.0 
0.0867159 0.012772 0.0 
1.03782 -0.0142352 0.0 
1.03062 -0.159918 0.0 
1.04307 0.0464713 0.0 
1.13809 0.117642 0.0 
0.998643 0.0199892 0.0 
0.11719 0.0101233 0.0 
0.998793 0.0190718 0.0 
0.414091 -0.0169731 0.0 
0.998646 0.0150433 0.0 
1.04696 0.0252025 0.0 
0.984922 0.0248767 0.0 
0.973195 0.0345746 0.0 
1.05012 0.0360001 0.0 
0.998468 0.0163037 0.0 
0.922761 -0.0793932 0.0 
0.983952 0.0212707 0.0 
1.06163 0.0200224 0.0 
0.981341 0.0257085 0.0 
1.03305 0.0301255 0.0 
1.04003 -0.170393 0.0 
0.998745 0.0166072 0.0 
1.05926 -0.00616103 0.0 
0.920163 -0.0857564 0.0 
1.03232 0.0697066 0.0 
1.03992 0.000398351 0.0 
1.06442 -0.0062151 0.0 
0.916508 -0.0815854 0.0 
1.1312 0.109677 0.0 
0.999046 0.0174105 0.0 
0.927599 -0.0725854 0.0 
0.922147 -0.0824511 0.0 
0.998543 0.0130609 0.0 
1.04031 -0.00517848 0.0 
0.999279 0.0199199 0.0 
0.93878 0.151136 0.0 
1.12608 0.0464495 0.0 
0.998586 0.015403 0.0 
0.638481 0.110003 0.0 
1.00577 0.0351581 0.0 
0.863201 0.0452945 0.0 
0.998753 0.0197925 0.0 
0.99909 0.0193279 0.0 
1.04755 -0.00613474 0.0 
0.973711 0.0241506 0.0 
1.06731 -0.0336557 0.0 
1.14145 0.197587 0.0 
1.10864 -0.127615 0.0 
0.883897 -0.0277133 0.0 
0.938028 0.0518366 0.0 
0.874904 0.0163216 0.0 
1.04494 -0.00689075 0.0 
0.924057 -0.0729706 0.0 
0.933148 -0.062448 0.0 
0.918857 -0.0741339 0.0 
0.585266 0.110423 0.0 
1.05299 -0.00663994 0.0 
0.100869 0.0069747 0.0 
1.03832 0.263968 0.0 
1.04122 -0.01691 0.0 
1.04696 -0.0106606 0.0 
1.05183 -0.0135407 0.0 
0.0780948 0.00360452 0.0 
1.14095 0.100818 0.0 
1.04709 -0.0280317 0.0 
1.04964 0.0159619 0.0 
0.941221 0.00861036 0.0 
1.03362 -0.0170673 0.0 
1.03471 -0.0132963 0.0 
0.998632 0.0161711 0.0 
1.04403 -0.0329283 0.0 
0.898839 -0.0654971 0.0 
0.998913 0.0153121 0.0 
0.909763 -0.0856068 0.0 
0.344775 -0.0430143 0.0 
0.887952 -0.0837894 0.0 
0.932423 0.0160965 0.0 
1.19624 0.0374257 0.0 
1.04458 0.0184395 0.0 
0.41175 -0.0912577 0.0 
1.09388 0.0855074 0.0 
0.998431 0.0163819 0.0 
1.01893 0.222121 0.0 
0.95136 0.176761 0.0 
0.998735 0.0178643 0.0 
0.999176 0.0162782 0.0 
0.99862 0.0186782 0.0 
0.577213 -0.00479472 0.0 
0.967558 0.0251685 0.0 
0.965251 0.0226726 0.0 
0.416023 0.135653 0.0 
0.97612 0.0410506 0.0 
0.940297 -0.0442908 0.0 
0.302629 0.101546 0.0 
0.376247 0.18444 0.0 
1.06365 0.295902 0.0 
1.06898 -0.101755 0.0 
0.967016 0.0196005 0.0 
1.1337 0.0464654 0.0 
0.420323 -0.00812653 0.0 
1.00054 0.0120681 0.0 
0.990042 0.0340435 0.0 
1.00932 0.0357151 0.0 
0.98347 0.031332 0.0 
0.999472 0.0170272 0.0 
0.918548 0.0213159 0.0 
1.05851 -0.130659 0.0 
0.918795 0.0755021 0.0 
0.908555 0.131658 0.0 
1.0391 0.0138844 0.0 
1.18721 0.0351772 0.0 
0.829765 0.116454 0.0 
1.05378 -0.0324621 0.0 
0.594129 0.017026 0.0 
0.975542 0.0436151 0.0 
0.932694 -0.0502039 0.0 
0.703553 0.194357 0.0 
0.899855 0.33854 0.0 
0.987021 0.0265604 0.0 
1.06292 -0.0127856 0.0 
0.967029 0.0860858 0.0 
1.11237 -0.074578 0.0 
1.10752 0.0602047 0.0 
0.982833 0.0329771 0.0 
0.956101 0.0121459 0.0 
1.18834 0.0405164 0.0 
0.999004 0.0234275 0.0 
1.07782 0.282833 0.0 
1.16081 0.032112 0.0 
1.12276 -0.0754752 0.0 
0.99398 0.0103489 0.0 
1.01682 0.0470682 0.0 
0.93723 0.00749639 0.0 
0.997169 0.00866151 0.0 
1.01927 0.283395 0.0 
1.05565 -0.0209721 0.0 
1.00459 0.149518 0.0 
0.924995 -0.00656446 0.0 
1.03336 0.0275791 0.0 
0.992557 0.0291023 0.0 
1.03437 0.0151171 0.0 
0.96266 0.0258477 0.0 
0.984725 0.0285424 0.0 
1.03215 0.00754496 0.0 
1 0 0.0 
1.06424 -0.00537816 0.0 
0.984431 0.0301898 0.0 
1.03899 0.000105123 0.0 
0.987297 0.0283524 0.0 
1.03644 -0.0302305 0.0 
1.03754 -0.0266447 0.0 
1.19248 0.0943674 0.0 
0.984536 0.0265654 0.0 
1.12844 -0.0800855 0.0 
0.915442 -0.145867 0.0 
1.06243 -0.00109975 0.0 
1.1275 -0.113002 0.0 
1.14253 0.0484363 0.0 
0.931156 0.0273157 0.0 
1.03742 0.00426004 0.0 
0.995801 0.0175565 0.0 
0.979374 0.0394483 0.0 
0.983885 0.0113435 0.0 
0.995487 0.0106082 0.0 
0.990065 0.0214542 0.0 
1.09232 0.165975 0.0 
0.948428 0.0246037 0.0 
0.998606 0.0180388 0.0 
1.14169 0.0558815 0.0 
1.15984 0.0358759 0.0 
0.998357 0.0172728 0.0 
0.938647 -0.0554564 0.0 
0.999017 0.0145351 0.0 
1.04274 -0.127549 0.0 
0.994881 0.0181502 0.0 
1.00026 0.0112674 0.0 
0.980455 0.0285905 0.0 
0.988552 0.0286056 0.0 
0.996404 0.0217825 0.0 
0.99162 0.030479 0.0 
0.882274 -0.10558 0.0 
1 0 0.0 
1 0 0.0 
1.02882 0.047359 0.0 
0.995031 0.0244433 0.0 
0.362183 0.0020949 0.0 
0.160552 0.0116338 0.0 
1.11704 0.215223 0.0 
0.969108 -0.0421754 0.0 
1.19894 0.0698498 0.0 
1.1405 0.0600136 0.0 
0.994301 0.0188599 0.0 
1.1378 0.0681624 0.0 
0.991606 0.0249266 0.0 
0.948571 -0.164023 0.0 
1 0 0.0 
1.15118 0.0307507 0.0 
0.961679 0.1893 0.0 
0.992565 0.0234418 0.0 
1.14325 -0.0828657 0.0 
1.0437 0.0129902 0.0 
1.0449 0.0145198 0.0 
0.982564 0.02927 0.0 
0.995263 0.0116099 0.0 
1.12905 0.230533 0.0 
1.11604 0.088622 0.0 
0.99404 0.019919 0.0 
0.263133 0.00863755 0.0 
0.958312 0.00124947 0.0 
0.991979 0.0124035 0.0 
0.995189 0.0123288 0.0 
0.419701 0.00233244 0.0 
0.985283 0.0234871 0.0 
0.948784 -0.0291886 0.0 
0.953397 -0.00675059 0.0 
0.0905965 -0.00297248 0.0 
1 0 0.0 
1.05372 0 0.0 
1.00762 0.165324 0.0 
1.11956 -0.144724 0.0 
0.931912 0.0357793 0.0 
1.11263 -0.128869 0.0 
0.401921 0.00302558 0.0 
0.0971178 0.0117333 0.0 
0.989496 0.0131295 0.0 
0.98543 0.0219993 0.0 
0.987264 0.0162785 0.0 
0.991527 0.0145782 0.0 
1.1101 -0.172479 0.0 
1.06404 -0.00976248 0.0 
1.07909 0.145507 0.0 
1.11867 0.0814674 0.0 
0.347018 0.00702261 0.0 
0.956587 0.078979 0.0 
1.00038 0.020661 0.0 
1.11181 0.255732 0.0 
0.972217 0.0325819 0.0 
1.06332 -0.0134804 0.0 
0.959224 0.0378555 0.0 
1.06228 -0.00614142 0.0 
0.543837 -0.0102277 0.0 
0.0996533 0.0105764 0.0 
0.112453 0.0401668 0.0 
0.395823 0.00085804 0.0 
0.999747 0.01267 0.0 
0.07244 0.000412751 0.0 
1.05971 -0.00177383 0.0 
1.16691 -0.0381499 0.0 
1.06444 -0.00442985 0.0 
1 0 0.0 
0.999586 0.0163403 0.0 
1.06316 0.000973964 0.0 
0.978817 0.0321567 0.0 
0.103823 0.00681707 0.0 
1.05913 0.0048527 0.0 
0.118805 0.00878974 0.0 
1.05662 0.0118816 0.0 
0.920243 0.0279785 0.0 
1.03551 0.00177012 0.0 
0.957264 0.0581877 0.0 
0.999749 0.0216441 0.0 
1.19445 -0.107686 0.0 
0.724892 -0.0181102 0.0 
1.04029 -0.0303258 0.0 
1.04326 -0.0353238 0.0 
1.07652 -0.0407854 0.0 
1.04606 0.00997315 0.0 
1.06356 -0.0117884 0.0 
1.18029 0.0138918 0.0 
1.03511 0.0127445 0.0 
1.22824 0.0861685 0.0 
1.03418 0.0251547 0.0 
0.999787 0.0173951 0.0 
1.15572 0.103963 0.0 
1.06146 -0.0184531 0.0 
0.982639 -0.0421304 0.0 
0.947669 0.0739558 0.0 
0.944139 0.0373002 0.0 
1.01399 0.0431048 0.0 
1.12639 -0.0025753 0.0 
0.928812 0.0326336 0.0 
1.01521 -0.00160162 0.0 
1.0479 0 0.0 
1.05929 -0.00222861 0.0 
0.933754 0.0543087 0.0 
1.13918 -0.162412 0.0 
0.935593 0.160083 0.0 
1.10435 -0.194155 0.0 
0.952798 -0.0199287 0.0 
1.0879 0.249656 0.0 
0.983045 0.0275779 0.0 
1.08597 0.103273 0.0 
0.797482 0.0998074 0.0 
1.17454 0.101621 0.0 
0.523896 -0.0043529 0.0 
1.07861 0.184512 0.0 
1.00385 0.0217641 0.0 
1.05611 0.0144716 0.0 
1.04154 0.00775333 0.0 
1.05009 -0.00119222 0.0 
1.04763 -0.000230316 0.0 
0.156105 0.0304475 0.0 
1.03977 0.00133684 0.0 
0.0851436 0.017346 0.0 
1.14695 -0.0744042 0.0 
1.0038 0.0355583 0.0 
1.04413 0.00839476 0.0 
1 0 0.0 
0.98304 0.0264125 0.0 
1.19276 0.0901098 0.0 
0.858513 -0.0647554 0.0 
0.999443 0.0157741 0.0 
0.991474 0.0392395 0.0 
1.05192 0.00948076 0.0 
1.05592 0.00499385 0.0 
0.939837 0.18868 0.0 
0.786145 0.12954 0.0 
1.00409 0.0188184 0.0 
1.14727 0.1251 0.0 
0.999949 0.242673 0.0 
0.998966 0.0123549 0.0 
0.986036 0.0291981 0.0 
1.05365 0.000948708 0.0 
0.93778 0.124429 0.0 
0.286959 -0.0259338 0.0 
1.05267 0.00297824 0.0 
0.175405 0.0992477 0.0 
1.05298 -0.00105498 0.0 
1.08694 -0.025081 0.0 
1.01507 0.0483059 0.0 
1.17438 -0.0889906 0.0 
1.04904 0.00185911 0.0 
0.956904 -0.00614767 0.0 
0.376871 0.00961912 0.0 
1.06065 -0.0219562 0.0 
0.946467 -0.00135228 0.0 
0.999644 0.0154713 0.0 
1.05815 -0.0266691 0.0 
0.941721 0.0656807 0.0 
1.19477 -0.040776 0.0 
0.398441 -0.0644566 0.0 
0.662744 -0.0211233 0.0 
0.940999 -0.00452855 0.0 
0.96472 0.271878 0.0 
0.25338 0.0477132 0.0 
0.997243 0.315433 0.0 
1.00596 -0.0127749 0.0 
1.07713 -0.040846 0.0 
0.747015 -0.00239247 0.0 
0.359028 0.11637 0.0 
1.09933 0.0683843 0.0 
0.998588 0.0124407 0.0 
0.586102 -0.00298293 0.0 
0.261671 -0.00787918 0.0 
0.91489 -0.0433476 0.0 
0.829088 -0.0367901 0.0 
1.02837 0.0418339 0.0 
0.998693 0.0120079 0.0 
1.02613 -0.0974087 0.0 
1.12315 -0.0293436 0.0 
1.16644 0.0193257 0.0 
0.104651 0.0108279 0.0 
0.936409 -0.0575042 0.0 
1.03318 0.0357164 0.0 
1.06327 -0.0073788 0.0 
0.938025 -0.00890988 0.0 
0.163409 0.0117812 0.0 
0.9987 0.0129508 0.0 
1.16593 0.023647 0.0 
1.05748 -0.0260928 0.0 
0.963823 0.215631 0.0 
1.04873 0.00932532 0.0 
1.06416 0.000696431 0.0 
1.0639 0.0053099 0.0 
0.954467 0.0376085 0.0 
1.05907 -0.0239027 0.0 
0.998812 0.0141548 0.0 
0.952138 0.00712664 0.0 
1.14667 -0.0280467 0.0 
1.04946 0.0208153 0.0 
0.989249 0.00746645 0.0 
0.953343 0.0153824 0.0 
0.998847 0.0143477 0.0 
1.05431 0.00610146 0.0 
1.04109 -0.00330998 0.0 
1.05938 -0.0212632 0.0 
0.990414 0.00912511 0.0 
1.01896 0.0414387 0.0 
0.998829 0.0135495 0.0 
1.04831 -0.0259569 0.0 
1.05988 0.0189954 0.0 
0.0957262 0.0405516 0.0 
0.0726164 0.018246 0.0 
1.06334 0.0148871 0.0 
0.905706 -0.0563948 0.0 
0.899543 -0.0455888 0.0 
0.886408 0.118524 0.0 
0.999269 0.0143157 0.0 
0.998757 0.0142487 0.0 
0.962664 -0.0131435 0.0 
0.964888 -0.00190331 0.0 
1.03379 0.0212925 0.0 
0.963852 0.234497 0.0 
1.06672 0.15101 0.0 
1.0273 -0.0449331 0.0 
0.104233 0.0222581 0.0 
1.15454 0.0204781 0.0 
1.07715 0.137136 0.0 
0.998629 0.0137506 0.0 
1.01492 0.0321901 0.0 
1.1059 -0.00783348 0.0 
0.982831 0.021066 0.0 
0.934425 0.0464563 0.0 
1.03408 -0.0281729 0.0 
0.973337 0.0374661 0.0 
0.94111 0.108877 0.0 
0.934092 0.0589549 0.0 
0.89481 -0.0597906 0.0 
0.962803 0.00719126 0.0 
0.799078 -0.0467443 0.0 
1.00084 0.0185881 0.0 
1.02879 0.0438116 0.0 
0.953681 -0.010126 0.0 
0.961464 -0.000951556 0.0 
0.922556 0.0342403 0.0 
1.10194 0.247927 0.0 
0.972287 0.00617054 0.0 
0.943445 0.291409 0.0 
0.945339 0.032838 0.0 
0.975275 0.225987 0.0 
0.850926 0.28573 0.0 
0.995135 0.00768681 0.0 
1.00224 0 0.0 
0.998765 0.0123841 0.0 
0.977229 0.00164421 0.0 
0.898437 0.152838 0.0 
0.138764 0.00768547 0.0 
1.01018 0.0442698 0.0 
0.980747 0.00726397 0.0 
0.99936 0.0127839 0.0 
0.916077 -0.0717993 0.0 
0.916574 0.0330299 0.0 
1.20295 -0.0285227 0.0 
0.998629 0.0126697 0.0 
0.981606 0.0825853 0.0 
0.879637 -0.120819 0.0 
1.03546 -0.0228985 0.0 
0.936148 0.0636798 0.0 
0.995168 0.0164879 0.0 
0.94437 0.0276023 0.0 
0.990921 0.0203061 0.0 
0.0921616 0.016317 0.0 
0.86703 -0.107541 0.0 
1.0366 -0.00626868 0.0 
1.13743 0.0836856 0.0 
1.18057 -0.0521329 0.0 
0.997667 0.0109096 0.0 
0.982031 0.0187986 0.0 
1.00655 0.20112 0.0 
1.11383 0.15612 0.0 
0.588095 0.0950212 0.0 
0.951134 0.188833 0.0 
0.981411 0.0191609 0.0 
0.438192 -0.0652234 0.0 
0.98238 0.0221 0.0 
0.997226 0.0129992 0.0 
1.00019 0.0200184 0.0 
0.384475 -0.0403862 0.0 
0.328641 -0.0322887 0.0 
0.981516 0.030367 0.0 
0.341875 0.0578906 0.0 
1.19119 0.0857878 0.0 
1.00944 0.0437073 0.0 
0.98066 0.0326225 0.0 
0.999561 0.0199028 0.0 
0.977906 0.0113439 0.0 
0.930246 0.0687173 0.0 
0.976585 0.0258591 0.0 
0.85223 0.284976 0.0 
0.600662 -0.0452398 0.0 
0.350482 -0.0482647 0.0 
0.968157 0.0136093 0.0 
0.974774 0.0122452 0.0 
1.05434 0.203923 0.0 
0.451639 -0.0461892 0.0 
0.9398 0.0210648 0.0 
1.03733 -0.0370141 0.0 
0.983166 0.245399 0.0 
0.999123 0.013947 0.0 
0.922494 0.0818049 0.0 
0.97217 0.0311964 0.0 
0.930106 0.143155 0.0 
0.963191 0.155119 0.0 
1.00903 0.254714 0.0 
0.774599 -0.0402226 0.0 
0.937483 -0.0522495 0.0 
1.10473 0.0599626 0.0 
0.472249 0.0934348 0.0 
0.926645 -0.0595826 0.0 
0.220975 0.0192053 0.0 
0.899213 -0.0128168 0.0 
0.75311 0.135412 0.0 
0.915408 -0.0663669 0.0 
0.922467 -0.0560784 0.0 
0.617265 0.165066 0.0 
1.04844 0.00661767 0.0 
0.940887 0.173181 0.0 
0.879779 -0.00488295 0.0 
0.928564 -0.0536517 0.0 
1.03537 -0.00794919 0.0 
0.343724 0.041435 0.0 
1.03447 -0.0102073 0.0 
0.866144 0.00743434 0.0 
0.89958 0.216913 0.0 
1.04093 -0.000848253 0.0 
0.907 -0.0880347 0.0 
0.924491 0.182109 0.0 
0.43391 -0.0538226 0.0 
1.11771 0.0631592 0.0 
1.03736 0.168836 0.0 
0.831986 0.380739 0.0 
1.10177 0.163591 0.0 
1.0651 0.259041 0.0 
1.04164 -0.0681322 0.0 
0.855267 -0.139881 0.0 
0.977695 0.0334523 0.0 
0.529807 0.061313 0.0 
0.91874 -0.0525815 0.0 
1.0374 0.0644159 0.0 
0.298636 0.0102097 0.0 
1.0441 0.263037 0.0 
1.05105 0.038694 0.0 
0.879017 0.105243 0.0 
1.00492 0.0222864 0.0 
0.892746 0.0669561 0.0 
0.251142 0.0176115 0.0 
0.853319 0.0763886 0.0 
0.949376 0.0369511 0.0 
0.947228 0.00397936 0.0 
1.17129 -0.0344859 0.0 
0.764199 0.335233 0.0 
0.847681 0.0890963 0.0 
1.02712 0.0730245 0.0 
1.08193 -0.0941778 0.0 
0.921408 -0.0468133 0.0 
1.0408 0.271268 0.0 
0.964681 0.0169967 0.0 
0.995336 0.0406761 0.0 
0.910234 0.077017 0.0 
0.92454 0.11258 0.0 
0.910646 0.0354687 0.0 
1.00896 0.0281284 0.0 
0.919783 0.105908 0.0 
0.917492 0.220632 0.0 
0.999058 0.0130234 0.0 
1.09131 -0.0691662 0.0 
0.451266 -0.0642912 0.0 
1.05493 0.25034 0.0 
0.966168 0.202724 0.0 
0.807161 0.151184 0.0 
0.827046 0.0382036 0.0 
0.88628 0.0298732 0.0 
1.04247 0.304745 0.0 
0.999435 0.0177306 0.0 
1.12409 0.13817 0.0 
1.03316 0.225832 0.0 
0.886836 -0.0482948 0.0 
0.922889 -0.00184282 0.0 
0.858428 0.15832 0.0 
0.910909 0.0207147 0.0 
0.885182 0.0148956 0.0 
0.93261 -0.0459697 0.0 
0.934211 0.207017 0.0 
0.995414 0.0307476 0.0 
0.999425 0.0152342 0.0 
0.217589 0.0207199 0.0 
0.19588 0.0245744 0.0 
0.912869 0.0278219 0.0 
0.528352 0.153686 0.0 
1.03477 -0.00911159 0.0 
0.921924 -0.016299 0.0 
0.977925 -0.000846324 0.0 
0.902599 0.076483 0.0 
0.842015 0.00675759 0.0 
1.0811 -0.0656052 0.0 
0.954968 0.0080879 0.0 
0.975477 0.00925121 0.0 
1.08448 0.266998 0.0 
0.363405 -0.0306717 0.0 
0.930812 0.300002 0.0 
0.972933 0.00276883 0.0 
0.988387 0.0544002 0.0 
1.06897 -0.228762 0.0 
0.968904 0.00480692 0.0 
0.961648 0.0126748 0.0 
0.997636 0.0135626 0.0 
1.03523 -0.0097471 0.0 
0.803767 0.107362 0.0 
0.90443 0.0184488 0.0 
0.990913 0.00561127 0.0 
1.02853 -0.182135 0.0 
0.995051 0.0157558 0.0 
0.935426 0.0241967 0.0 
0.814043 0.167744 0.0 
0.949883 -0.00837713 0.0 
0.99808 0.0103856 0.0 
0.938654 0.00481729 0.0 
0.189381 0.128449 0.0 
0.943771 -0.0082824 0.0 
1.06142 -0.00856088 0.0 
0.954108 0.288389 0.0 
0.152261 0.0237076 0.0 
1.1017 0.254169 0.0 
0.988001 0.0150613 0.0 
1.04112 -0.177725 0.0 
0.968787 0.00196796 0.0 
0.959548 0.00925994 0.0 
0.959784 0.00465745 0.0 
0.545139 0.134925 0.0 
0.961817 0.00197583 0.0 
0.955874 -0.0134625 0.0 
0.654344 0.184129 0.0 
1.03233 -0.013546 0.0 
1.03203 0.0463339 0.0 
0.998226 0.26543 0.0 
0.980846 0.0210798 0.0 
0.975229 0.0292612 0.0 
0.964598 0.00405828 0.0 
0.89347 0.0129647 0.0 
0.958814 -0.017767 0.0 
0.121654 -0.00238317 0.0 
0.968639 -0.000101634 0.0 
1.05489 0.0174008 0.0 
0.876283 0.167868 0.0 
0.996416 0.0123191 0.0 
1.05924 0.0262208 0.0 
1.05607 0.0945011 0.0 
1.10171 -0.0691736 0.0 
1.09512 0.103766 0.0 
0.976474 -0.0028203 0.0 
0.876956 0.182807 0.0 
0.996532 0.0147772 0.0 
0.996889 0.0113906 0.0 
0.890351 -0.0411669 0.0 
0.978493 0.0260427 0.0 
1.1642 -0.226294 0.0 
0.705797 0.00735902 0.0 
0.941989 0.0416178 0.0 
1.01776 0.30219 0.0 
0.909072 0.352982 0.0 
0.839179 0.131978 0.0 
1.15699 0.0716875 0.0 
0.154453 0.134172 0.0 
1.01918 0.289092 0.0 
1.06731 0.265114 0.0 
1.03582 -0.00698211 0.0 
0.938795 0.0941329 0.0 
0.0586528 0.0131041 0.0 
1.17603 0.144507 0.0 
0.977556 0.032135 0.0 
0.91004 0.121893 0.0 
1.12775 0.218441 0.0 
0.851527 0.124169 0.0 
-0.0330561 -0.0249787 0.0 
0.97866 0.0302737 0.0 
0.92511 0.0735783 0.0 
0.749427 0.139961 0.0 
0.979517 0.0270182 0.0 
0.911847 0.149916 0.0 
0.995789 0.0128085 0.0 
0.903168 0.101357 0.0 
0.979006 0.0281859 0.0 
0.85404 0.0555822 0.0 
0.831237 0.0224827 0.0 
0.904344 0.163972 0.0 
0.998695 0.0116753 0.0 
0.968831 -0.00458481 0.0 
0.979989 0.0253597 0.0 
0.99897 0.0179908 0.0 
0.962666 -0.00462225 0.0 
0.961615 -0.00830341 0.0 
0.966127 -0.00407544 0.0 
0.938589 -0.0413306 0.0 
0.925882 0.0581059 0.0 
0.926489 0.0880153 0.0 
1.03653 -0.00214764 0.0 
0.989498 0.0323996 0.0 
1.05773 0.0276235 0.0 
0.999064 0.014885 0.0 
1.07416 -0.00407629 0.0 
1.00442 0.0799585 0.0 
0.94967 0.0133874 0.0 
0.97673 0.0273404 0.0 
1.05002 -0.16038 0.0 
1.10272 0.241943 0.0 
1.12493 0.230057 0.0 
0.933844 -0.0321109 0.0 
0.99896 0.0144059 0.0 
0.951158 0.0110458 0.0 
0.996279 0.0139146 0.0 
0.979526 0.00553594 0.0 
1.05105 0.011388 0.0 
1.04896 -0.171097 0.0 
0.140721 0.00730854 0.0 
0.670347 0.136407 0.0 