<VTKFile type="UnstructuredGrid" version="0.1" byte_order="LittleEndian">
  <UnstructuredGrid>
    <Piece NumberOfPoints="9712" NumberOfCells="19403">
      <Points>
        <DataArray type = "Float64" NumberOfComponents="3" format="ascii">
-5 -7 0.0 
15.5 -7 0.0 
15.5 7 0.0 
-5 7 0.0 
-1.6546 1.77742 0.0 
-2.13867 1.86504 0.0 
-1.83467 1.79143 0.0 
1.47969 -2.21179 0.0 
1.36003 -2.38618 0.0 
1.4346 -2.45048 0.0 
-2.04214 1.94165 0.0 
-0.20425 1.17338 0.0 
-2.07648 1.81911 0.0 
-2.00827 1.89081 0.0 
-2.05492 1.98872 0.0 
0.192693 0.536219 0.0 
0.154285 1.75648 0.0 
1.1379 -1.62057 0.0 
-2.11226 1.96977 0.0 
-1.74119 1.75327 0.0 
1.14499 -1.58184 0.0 
-1.94373 2.37229 0.0 
1.50619 -0.664239 0.0 
1.99658 -1.76705 0.0 
1.7229 -1.18344 0.0 
-1.97759 2.52091 0.0 
-0.768046 0.387136 0.0 
1.32657 -1.43969 0.0 
1.90142 0.24821 0.0 
-0.93264 1.51038 0.0 
1.09557 0.967223 0.0 
0.627111 0.757352 0.0 
-2.05707 2.31394 0.0 
1.34027 -2.45136 0.0 
-0.725097 0.397516 0.0 
-0.666094 2.30428 0.0 
-0.73829 -0.279965 0.0 
1.73336 -1.08822 0.0 
1.88466 -1.24421 0.0 
1.50539 -1.23752 0.0 
1.65978 -1.30759 0.0 
-0.0409718 0.542603 0.0 
1.6005 -1.1227 0.0 
1.78439 -0.941488 0.0 
1.86015 -1.54236 0.0 
1.49308 -1.40058 0.0 
2.34892 -1.47149 0.0 
2.13832 -1.3246 0.0 
1.73061 0.751302 0.0 
-0.580328 0.526903 0.0 
1.51013 -2.1595 0.0 
-1.65424 3.45779 0.0 
-1.51397 2.46352 0.0 
1.42773 -2.17867 0.0 
0.304353 0.497878 0.0 
2.24628 0.228293 0.0 
1.51258 -2.27933 0.0 
-1.60346 3.44299 0.0 
-1.71408 2.36227 0.0 
2.17421 0.530405 0.0 
2.42 0.316451 0.0 
-1.63642 3.31911 0.0 
2.53942 -0.995036 0.0 
0.750003 0.810439 0.0 
2.04736 0.40918 0.0 
1.19615 -1.50641 0.0 
2.13474 0.494063 0.0 
0.547924 0.306722 0.0 
-0.2059 0.361394 0.0 
2.2127 0.547693 0.0 
1.41442 -0.597105 0.0 
1.52233 -1.46252 0.0 
-1.84114 2.53924 0.0 
-5 -2.53894 0.0 
2.32127 0.371156 0.0 
-1.69186 3.33379 0.0 
-0.964779 0.566136 0.0 
-1.81311 2.48387 0.0 
-1.78557 3.38304 0.0 
1.48278 0.914136 0.0 
2.51531 -1.89689 0.0 
1.20982 -0.330514 0.0 
0.408434 0.319657 0.0 
0.95023 0.60993 0.0 
-0.752349 0.440796 0.0 
-0.998248 0.564019 0.0 
-1.73165 3.36299 0.0 
1.24353 -1.49063 0.0 
0.942095 0.817189 0.0 
-1.77816 2.47096 0.0 
2.48183 -1.95479 0.0 
1.33574 -1.77854 0.0 
0.823335 1.12085 0.0 
-0.36308 0.598468 0.0 
0.745466 0.783414 0.0 
-1.88344 2.8521 0.0 
-1.79794 3.52221 0.0 
3.0087 0.272815 0.0 
-1.81486 2.66014 0.0 
0.375911 -0.403668 0.0 
-0.68323 0.487288 0.0 
-0.34187 -0.274923 0.0 
-0.293875 -0.201368 0.0 
1.61018 -1.767 0.0 
-0.448275 -0.347267 0.0 
-1.08687 0.352015 0.0 
1.29257 -1.76345 0.0 
1.67658 -1.49551 0.0 
1.19193 0.533009 0.0 
1.21582 -1.91654 0.0 
-0.36438 -0.346225 0.0 
-0.92534 0.330346 0.0 
2.3836 0.287756 0.0 
1.68841 0.639887 0.0 
1.59001 -1.89458 0.0 
1.14818 -1.92143 0.0 
1.28996 -2.19426 0.0 
1.37603 -1.8763 0.0 
1.23834 -2.09141 0.0 
1.11702 -2.06287 0.0 
0.691829 0.463808 0.0 
1.46523 -2.03459 0.0 
-0.123547 0.424486 0.0 
-1.3311 2.12174 0.0 
1.08169 -1.90074 0.0 
1.87975 -2.15971 0.0 
1.10131 -1.78593 0.0 
1.13722 0.534683 0.0 
1.42465 -1.59031 0.0 
-1.45435 2.47344 0.0 
1.41998 -1.98207 0.0 
0.463917 1.8787 0.0 
-1.72896 2.89571 0.0 
1.12419 -1.84975 0.0 
1.59054 -1.20634 0.0 
0.46124 0.621002 0.0 
0.806438 -1.00204 0.0 
2.1804 0.349761 0.0 
2.21142 -1.6418 0.0 
1.10152 -0.274558 0.0 
2.23388 0.387302 0.0 
0.137769 0.567007 0.0 
1.88736 0.267391 0.0 
1.26821 -1.94267 0.0 
0.21033 -0.605707 0.0 
2.61094 -1.50046 0.0 
0.819837 0.743337 0.0 
-1.4303 2.07799 0.0 
1.82013 0.322126 0.0 
-1.47649 2.2099 0.0 
1.15745 -0.274223 0.0 
-1.81198 2.24994 0.0 
2.34337 -1.67775 0.0 
-1.13329 1.37877 0.0 
-0.828215 1.05292 0.0 
2.46752 -1.53452 0.0 
-1.69915 2.18529 0.0 
-0.404416 -0.286271 0.0 
-1.23501 1.31766 0.0 
2.11757 -1.50659 0.0 
-1.08535 1.28274 0.0 
2.58548 -1.70783 0.0 
0.24729 -0.572345 0.0 
-1.66963 2.25319 0.0 
1.58322 -1.62308 0.0 
-0.367923 -0.306026 0.0 
0.391521 1.44485 0.0 
1.88977 -2.46319 0.0 
1.5943 -1.53613 0.0 
-0.357143 -0.23651 0.0 
0.82621 0.80563 0.0 
-1.59261 2.31884 0.0 
-0.47244 -0.307516 0.0 
-0.40334 -0.326688 0.0 
-2.00063 2.11543 0.0 
1.55514 -1.95078 0.0 
-1.40431 2.26352 0.0 
-0.0265928 0.573714 0.0 
1.17093 1.10579 0.0 
-1.77907 2.22111 0.0 
0.682788 0.329642 0.0 
-0.54475 2.15572 0.0 
-0.288592 0.289433 0.0 
-1.43199 2.16349 0.0 
-1.45029 2.25134 0.0 
1.5535 -1.79992 0.0 
-1.06406 1.08381 0.0 
1.72954 1.44966 0.0 
0.582806 0.515814 0.0 
0.582876 -0.679913 0.0 
1.32351 -0.355916 0.0 
-0.47505 0.577092 0.0 
-0.371167 0.227715 0.0 
1.52235 -1.8529 0.0 
-0.429822 -0.244811 0.0 
-0.53237 -0.24648 0.0 
-0.393983 -0.210364 0.0 
0.652895 0.317361 0.0 
1.55812 -1.70765 0.0 
1.63021 0.325622 0.0 
0.442731 0.358729 0.0 
1.22925 -1.85192 0.0 
1.43517 -1.79082 0.0 
1.39317 -1.6984 0.0 
1.62965 0.295952 0.0 
0.905462 0.793465 0.0 
1.04036 -1.64811 0.0 
2.1131 -1.72466 0.0 
-0.743911 0.369492 0.0 
1.14427 -1.99314 0.0 
1.26033 -2.0209 0.0 
-1.70955 2.07308 0.0 
0.910023 -1.62976 0.0 
-0.313059 -0.0954838 0.0 
-1.77334 2.3988 0.0 
-0.311958 -0.24042 0.0 
2.53315 0.325608 0.0 
-0.273728 -0.226719 0.0 
-0.646401 0.379627 0.0 
1.52426 0.616074 0.0 
2.21703 -1.79499 0.0 
2.71108 0.312216 0.0 
0.759924 1.093 0.0 
-1.69271 2.12368 0.0 
0.255794 0.540969 0.0 
0.0534699 0.562158 0.0 
-1.5679 2.22408 0.0 
-1.66906 2.45165 0.0 
-1.51895 2.09449 0.0 
2.16948 0.408238 0.0 
-0.818806 0.680638 0.0 
-0.826868 0.642087 0.0 
0.519855 0.276992 0.0 
-0.716682 1.18602 0.0 
-0.649974 -0.148775 0.0 
0.457368 0.256619 0.0 
0.517407 0.248194 0.0 
0.327129 0.39802 0.0 
0.533249 -0.878832 0.0 
-0.870735 0.634904 0.0 
1.19219 1.07557 0.0 
2.35922 0.366028 0.0 
-1.66911 3.66723 0.0 
-0.857603 1.54934 0.0 
-0.379189 2.30131 0.0 
-0.941007 1.36523 0.0 
-1.58662 2.49682 0.0 
-0.545297 0.352587 0.0 
0.327944 -0.744683 0.0 
-0.312756 0.524741 0.0 
-0.107843 0.506233 0.0 
2.13378 -2.36584 0.0 
1.52689 0.686953 0.0 
-0.119983 0.327909 0.0 
1.02161 -1.53072 0.0 
1.51507 0.39695 0.0 
-0.674484 1.02605 0.0 
-0.564724 -0.148435 0.0 
0.409388 0.290913 0.0 
0.252349 0.30842 0.0 
-1.09282 1.45998 0.0 
1.45674 -1.54484 0.0 
-0.266777 0.782169 0.0 
0.91327 -0.874389 0.0 
1.01208 1.13309 0.0 
-0.897136 1.35063 0.0 
-0.846484 0.489353 0.0 
1.47563 0.663768 0.0 
-1.22282 2.05021 0.0 
0.348906 0.416714 0.0 
1.41913 0.964648 0.0 
0.933289 -0.839038 0.0 
-1.85066 1.40221 0.0 
0.142477 1.99435 0.0 
-0.717809 0.341194 0.0 
-2.21177 1.41584 0.0 
0.396571 0.350929 0.0 
1.25171 -1.60721 0.0 
0.736798 0.393502 0.0 
-0.661427 0.19031 0.0 
2.18751 -2.32769 0.0 
-1.00908 1.6747 0.0 
2.21416 -2.07269 0.0 
-0.779194 0.642011 0.0 
-1.02312 1.3939 0.0 
2.08809 -2.24876 0.0 
-5 -4.48794 0.0 
1.61792 -1.46215 0.0 
-0.974627 1.38947 0.0 
1.81166 -2.48446 0.0 
-1.03635 1.47474 0.0 
0.869004 -1.74424 0.0 
0.956579 -1.78598 0.0 
1.07495 0.540689 0.0 
-1.08005 1.37763 0.0 
0.914755 -0.803058 0.0 
0.611759 -0.305322 0.0 
1.70043 -1.41356 0.0 
0.75708 -0.631542 0.0 
1.21215 1.01979 0.0 
-0.586902 0.440014 0.0 
1.9251 -2.56336 0.0 
-1.58261 1.91091 0.0 
-0.746541 1.26087 0.0 
-1.49915 1.13657 0.0 
-1.46675 0.971536 0.0 
-1.05881 0.930935 0.0 
0.71826 0.415078 0.0 
-0.701697 0.526982 0.0 
-1.56194 2.05157 0.0 
1.15988 0.991244 0.0 
1.38676 0.949615 0.0 
-1.61697 2.02689 0.0 
1.13748 -0.357331 0.0 
-1.8456 2.04561 0.0 
0.253686 -0.756334 0.0 
-1.53603 1.86509 0.0 
-1.43465 0.924137 0.0 
-1.00273 1.27416 0.0 
-1.03063 1.5132 0.0 
-1.32483 1.94769 0.0 
-0.965552 1.61445 0.0 
-0.239859 -0.245939 0.0 
-5 3.01776 0.0 
-5 -0.248741 0.0 
0.517491 1.87079 0.0 
-1.18776 1.8875 0.0 
2.27458 0.36201 0.0 
1.9794 0.331487 0.0 
0.503086 0.510306 0.0 
1.26387 -0.370702 0.0 
1.24483 0.550197 0.0 
1.12871 0.979556 0.0 
-1.48659 1.83259 0.0 
1.0672 0.958366 0.0 
-1.16856 1.61214 0.0 
-0.218637 -0.230696 0.0 
-5 1.81431 0.0 
1.37014 1.04658 0.0 
0.0950623 0.557621 0.0 
-1.23613 1.67303 0.0 
0.953731 -0.709843 0.0 
2.07568 -1.85385 0.0 
2.10836 -1.82014 0.0 
-0.994952 1.33552 0.0 
-1.86986 1.52312 0.0 
0.515812 0.447542 0.0 
0.842446 0.992035 0.0 
-1.42353 1.8223 0.0 
2.091 0.354014 0.0 
-0.937663 0.401428 0.0 
-1.69305 1.41997 0.0 
-1.82465 1.55127 0.0 
2.15192 0.384657 0.0 
-1.17972 1.37998 0.0 
-0.718866 -0.0130647 0.0 
-0.927867 0.290435 0.0 
1.56509 0.300406 0.0 
-5 -3.04052 0.0 
9.98027 -7 0.0 
0.176009 0.694641 0.0 
0.597997 -0.559941 0.0 
-0.546583 0.4849 0.0 
0.602022 -0.657834 0.0 
2.17737 0.379672 0.0 
1.89809 0.287017 0.0 
-1.58883 1.35796 0.0 
-1.2284 1.37063 0.0 
-1.43937 1.35342 0.0 
-1.59664 1.47263 0.0 
0.577431 -0.368705 0.0 
1.5263 -1.51093 0.0 
0.479666 0.796509 0.0 
0.894995 1.01463 0.0 
2.22312 0.363016 0.0 
-0.320562 0.726481 0.0 
-1.30188 2.41386 0.0 
0.43802 0.434693 0.0 
-0.761697 0.762024 0.0 
1.45688 -1.49591 0.0 
-0.65072 0.676835 0.0 
1.6097 -1.41509 0.0 
2.25768 0.399237 0.0 
1.85518 0.299709 0.0 
2.14618 0.290757 0.0 
2.25222 0.371677 0.0 
-1.93063 2.91367 0.0 
1.52717 0.319618 0.0 
1.67964 -1.62237 0.0 
1.35962 -0.439169 0.0 
1.63007 -1.54335 0.0 
-5 -0.764504 0.0 
-1.61377 2.62271 0.0 
1.73865 -1.57725 0.0 
-0.908306 1.23669 0.0 
1.60766 0.330292 0.0 
1.82509 -1.63054 0.0 
1.90521 0.312457 0.0 
1.98719 -1.6488 0.0 
-0.528791 0.39225 0.0 
1.94978 -2.39003 0.0 
-0.472559 0.718465 0.0 
-1.28058 2.26572 0.0 
0.881581 -0.556282 0.0 
2.26369 0.42542 0.0 
0.917309 -1.69962 0.0 
0.853954 -1.60945 0.0 
1.30086 -0.404316 0.0 
1.99565 -2.46852 0.0 
1.49445 -1.47573 0.0 
1.68285 0.863315 0.0 
2.03074 -2.37549 0.0 
2.52279 -0.506167 0.0 
2.56049 -1.76899 0.0 
-1.52889 2.56597 0.0 
2.81136 -0.570221 0.0 
1.3688 -1.46095 0.0 
1.29524 -0.373946 0.0 
-0.350504 0.671928 0.0 
-0.590282 0.564035 0.0 
-0.054366 2.16706 0.0 
1.50819 1.22548 0.0 
-0.548222 0.453941 0.0 
2.19936 -2.5207 0.0 
12.2704 -7 0.0 
1.6811 -1.36761 0.0 
-0.449261 0.559535 0.0 
0.537017 -0.527614 0.0 
-0.00733391 0.553304 0.0 
0.494109 -0.356396 0.0 
-0.7939 0.0827441 0.0 
0.39888 0.467333 0.0 
-1.04288 1.34095 0.0 
0.605019 1.02824 0.0 
0.847559 0.374727 0.0 
1.00336 0.618307 0.0 
2.1955 0.399186 0.0 
0.656973 0.401158 0.0 
-0.998431 2.73564 0.0 
[...]
<PointData>
  <DataArray type = "Float64" Name="VitesseP1" NumberOfComponents="3" format="ascii">
1 0 0.0 
1.08263 0 0.0 
1.02754 0 0.0 
1 0 0.0 
0.994617 0.0157308 0.0 
0.996915 0.0110717 0.0 
0.995497 0.0135431 0.0 
1.0404 -0.00404258 0.0 
1.04204 -0.00590448 0.0 
1.04689 -0.0054082 0.0 
0.997756 0.0119974 0.0 
0.98646 0.0724209 0.0 
0.996608 0.0114019 0.0 
0.99682 0.0121883 0.0 
0.998909 0.012 0.0 
0.992461 0.217728 0.0 
1.01933 0.0536204 0.0 
1.05045 -0.0254574 0.0 
0.998834 0.0114225 0.0 
0.995029 0.0144675 0.0 
1.05504 -0.0263576 0.0 
0.998852 0.0133217 0.0 
1.15972 -0.0237514 0.0 
1.04756 0.0121519 0.0 
1.06244 -0.000836125 0.0 
0.998819 0.0129034 0.0 
0.944551 0.00868353 0.0 
1.06242 -0.0212827 0.0 
0.065571 0.00884853 0.0 
0.988774 0.0313178 0.0 
1.14202 0.0662777 0.0 
1.10995 0.141272 0.0 
0.998844 0.0123314 0.0 
1.03262 -0.0187039 0.0 
0.941397 0.0122663 0.0 
1.00546 0.0303487 0.0 
0.937031 -0.0512685 0.0 
1.0834 -0.000422524 0.0 
1.05518 0.00969041 0.0 
1.05346 -0.0145871 0.0 
1.0562 -0.00415576 0.0 
0.927003 0.151356 0.0 
1.07412 -0.00986313 0.0 
1.12515 0.00338445 0.0 
1.06714 0.00741978 0.0 
1.06281 -0.0129953 0.0 
1.06087 0.0343012 0.0 
1.05577 0.0248653 0.0 
1.19691 0.0236898 0.0 
0.939573 0.0355655 0.0 
1.03947 -0.00386999 0.0 
1.00248 0.0122798 0.0 
0.99981 0.0174571 0.0 
1.03896 -0.00557168 0.0 
1.03796 0.242664 0.0 
0.0375142 0.0195419 0.0 
1.04166 -0.00307106 0.0 
1.00269 0.0126731 0.0 
0.999082 0.0155696 0.0 
1.17559 -0.0129328 0.0 
0.193466 -0.0132907 0.0 
1.00237 0.0129303 0.0 
1.0922 0.0612919 0.0 
1.12274 0.11963 0.0 
0.584057 0.000476355 0.0 
1.0603 -0.0262188 0.0 
1.09046 -0.00883685 0.0 
0.557951 0.134483 0.0 
0.862851 0.0853058 0.0 
1.19323 -0.0184527 0.0 
1.20126 -0.0354131 0.0 
1.06607 -0.0106874 0.0 
0.999033 0.0140368 0.0 
1 0 0.0 
0.354506 -0.0187603 0.0 
1.00214 0.0125167 0.0 
0.968135 0.0105702 0.0 
0.999055 0.0143921 0.0 
1.00176 0.0117144 0.0 
1.17297 0.0334253 0.0 
1.03691 0.0223588 0.0 
0.758767 -0.0397975 0.0 
0.94944 0.262738 0.0 
1.17331 0.11354 0.0 
0.946188 0.0142117 0.0 
0.969948 0.00886881 0.0 
1.00205 0.012136 0.0 
1.06157 -0.0244084 0.0 
1.14333 0.0960334 0.0 
0.999121 0.0147393 0.0 
1.04309 0.0267332 0.0 
1.04391 -0.0141013 0.0 
1.09623 0.0785277 0.0 
0.935555 0.0699093 0.0 
1.1251 0.123765 0.0 
0.99986 0.0128298 0.0 
1.00221 0.0109522 0.0 
0.0648589 -0.153197 0.0 
0.999223 0.0139675 0.0 
1.19209 -0.234182 0.0 
0.944089 0.0229682 0.0 
0.918957 -0.0883262 0.0 
0.915823 -0.0744673 0.0 
1.04803 -0.00359326 0.0 
0.924507 -0.078216 0.0 
0.967166 -0.00816061 0.0 
1.04372 -0.0160314 0.0 
1.06767 -0.00218473 0.0 
1.19668 0.0809898 0.0 
1.03804 -0.0156847 0.0 
0.920237 -0.0885582 0.0 
0.954855 -0.00365271 0.0 
0.121006 0.000840875 0.0 
1.20166 0.0304347 0.0 
1.04381 -0.00352599 0.0 
1.03654 -0.0175224 0.0 
1.03689 -0.00830408 0.0 
1.04201 -0.0110973 0.0 
1.03485 -0.0118157 0.0 
1.03226 -0.016576 0.0 
1.16439 0.183106 0.0 
1.03837 -0.00620661 0.0 
0.877402 0.125816 0.0 
0.999081 0.0209483 0.0 
1.03563 -0.0199959 0.0 
1.03928 0.00534083 0.0 
1.03877 -0.0222667 0.0 
1.19618 0.0886488 0.0 
1.06097 -0.013831 0.0 
1.00006 0.0180798 0.0 
1.03874 -0.00821878 0.0 
1.02866 0.0469766 0.0 
1.00071 0.0138637 0.0 
1.03781 -0.0199799 0.0 
1.05779 -0.00946131 0.0 
1.08772 0.188406 0.0 
1.06849 -0.072386 0.0 
0.215829 0.00378994 0.0 
1.05412 0.0229837 0.0 
0.459127 -0.0387944 0.0 
0.424162 -0.0138398 0.0 
0.977832 0.196175 0.0 
0.0701413 0.00690478 0.0 
1.03791 -0.0135675 0.0 
1.03098 -0.160231 0.0 
1.04831 0.0493822 0.0 
1.13934 0.119425 0.0 
0.998784 0.0195588 0.0 
0.0839643 0.00681803 0.0 
0.998954 0.0186318 0.0 
0.412359 -0.016458 0.0 
0.998766 0.0146623 0.0 
1.04651 0.0274285 0.0 
0.985192 0.0245588 0.0 
0.973475 0.0343556 0.0 
1.05424 0.0384559 0.0 
0.998597 0.0159101 0.0 
0.922934 -0.0794663 0.0 
0.984199 0.0209769 0.0 
1.06547 0.021047 0.0 
0.981626 0.0254136 0.0 
1.03332 0.0335958 0.0 
1.04036 -0.170728 0.0 
0.998882 0.0161996 0.0 
1.05915 -0.00594837 0.0 
0.920353 -0.0858352 0.0 
1.03382 0.0693107 0.0 
1.04538 -0.000765574 0.0 
1.0666 -0.00619346 0.0 
0.916624 -0.0816557 0.0 
1.13265 0.111322 0.0 
0.999195 0.0169796 0.0 
0.927801 -0.072659 0.0 
0.92237 -0.0825291 0.0 
0.998627 0.0127268 0.0 
1.04119 -0.00434493 0.0 
0.999451 0.0194573 0.0 
0.939072 0.151292 0.0 
1.12964 0.0477106 0.0 
0.998707 0.0150195 0.0 
0.635386 0.110331 0.0 
1.00608 0.0344618 0.0 
0.863414 0.045305 0.0 
0.998912 0.0193501 0.0 
0.999256 0.0188769 0.0 
1.04611 -0.00558035 0.0 
0.973984 0.0239101 0.0 
1.07 -0.0382516 0.0 
1.1417 0.198839 0.0 
1.10914 -0.128266 0.0 
0.877748 -0.0292116 0.0 
0.938251 0.051782 0.0 
0.875101 0.0163019 0.0 
1.04445 -0.00626968 0.0 
0.924195 -0.0730392 0.0 
0.933296 -0.0625199 0.0 
0.918949 -0.0741966 0.0 
0.582665 0.110655 0.0 
1.05132 -0.00627628 0.0 
0.11225 0.0159648 0.0 
1.03778 0.264559 0.0 
1.04004 -0.0165228 0.0 
1.04512 -0.0102118 0.0 
1.04993 -0.0133728 0.0 
0.0921785 0.0209782 0.0 
1.14259 0.102766 0.0 
1.04499 -0.0283425 0.0 
1.0485 0.0173266 0.0 
0.941444 0.00851924 0.0 
1.03378 -0.0164784 0.0 
1.0355 -0.0123808 0.0 
0.99873 0.0157929 0.0 
1.04205 -0.0335059 0.0 
0.898805 -0.0655199 0.0 
0.999048 0.0149081 0.0 
0.909871 -0.0856787 0.0 
0.260424 -0.036658 0.0 
0.888026 -0.0838748 0.0 
0.932646 0.0160238 0.0 
1.20038 0.0433512 0.0 
1.04399 0.0203833 0.0 
0.327488 -0.0602994 0.0 
1.09576 0.0861847 0.0 
0.998548 0.0159948 0.0 
1.01919 0.222602 0.0 
0.951651 0.176988 0.0 
0.998884 0.0174407 0.0 
0.999328 0.0158478 0.0 
0.998749 0.0182624 0.0 
0.574033 -0.00809069 0.0 
0.967708 0.0250346 0.0 
0.965407 0.0225432 0.0 
0.414863 0.135688 0.0 
0.976528 0.0407813 0.0 
0.940327 -0.0443781 0.0 
0.301805 0.101483 0.0 
0.375591 0.184448 0.0 
1.06358 0.296429 0.0 
1.06928 -0.102212 0.0 
0.967168 0.0194654 0.0 
1.13733 0.04792 0.0 
0.347563 -0.0197416 0.0 
1.00055 0.0116054 0.0 
0.990377 0.0336389 0.0 
1.00961 0.0349376 0.0 
0.983801 0.0310029 0.0 
0.999637 0.0165743 0.0 
0.918777 0.021265 0.0 
1.05887 -0.131003 0.0 
0.91904 0.0755028 0.0 
0.908812 0.131759 0.0 
1.04397 0.014077 0.0 
1.19158 0.0406295 0.0 
0.829977 0.116548 0.0 
1.05498 -0.0330236 0.0 
0.569747 0.0204933 0.0 
0.975807 0.043406 0.0 
0.932726 -0.0502753 0.0 
0.702571 0.194506 0.0 
0.899577 0.338785 0.0 
0.987295 0.0262158 0.0 
1.06466 -0.0128772 0.0 
0.967326 0.0860384 0.0 
1.11301 -0.075559 0.0 
1.1104 0.0611319 0.0 
0.98318 0.0326496 0.0 
0.956292 0.0120322 0.0 
1.19234 0.0458581 0.0 
0.999179 0.0229604 0.0 
1.07782 0.283425 0.0 
1.16596 0.0349552 0.0 
1.12346 -0.0765232 0.0 
0.994088 0.0100972 0.0 
1.01781 0.0456872 0.0 
0.937458 0.00741006 0.0 
0.997226 0.00842676 0.0 
1.01883 0.283909 0.0 
1.05526 -0.0210978 0.0 
1.0019 0.150647 0.0 
0.925183 -0.00664498 0.0 
1.03521 0.0313291 0.0 
0.992829 0.0286823 0.0 
1.03608 0.0169773 0.0 
0.962824 0.025726 0.0 
0.985026 0.0282107 0.0 
1.0351 0.00822733 0.0 
1 0 0.0 
1.06703 -0.00551015 0.0 
0.984749 0.0298552 0.0 
1.04393 -0.000337889 0.0 
0.987587 0.027997 0.0 
1.03314 -0.0306737 0.0 
1.03496 -0.0268819 0.0 
1.19338 0.0979445 0.0 
0.984822 0.0262433 0.0 
1.12915 -0.0811353 0.0 
0.914644 -0.146315 0.0 
1.06544 -0.0012694 0.0 
1.12797 -0.113879 0.0 
1.14618 0.0502557 0.0 
0.931375 0.0272527 0.0 
1.03702 0.00231094 0.0 
0.995957 0.0171832 0.0 
0.979772 0.0391473 0.0 
0.984072 0.0111098 0.0 
0.995521 0.0103693 0.0 
0.99011 0.0212416 0.0 
1.0908 0.16736 0.0 
0.948623 0.0245107 0.0 
0.99872 0.0176387 0.0 
1.14496 0.0577549 0.0 
1.16462 0.0387133 0.0 
0.998465 0.0168861 0.0 
0.935406 -0.056145 0.0 
0.999088 0.0141839 0.0 
1.04302 -0.127821 0.0 
0.995055 0.0177772 0.0 
1.00025 0.0110227 0.0 
0.980763 0.028295 0.0 
0.988837 0.028238 0.0 
0.996596 0.0213576 0.0 
0.991905 0.0300697 0.0 
0.882378 -0.10567 0.0 
1 0 0.0 
1 0 0.0 
1.03052 0.0462901 0.0 
0.99527 0.0240048 0.0 
0.293991 -0.0112116 0.0 
0.0982744 0.0140404 0.0 
1.11726 0.216239 0.0 
0.96477 -0.0437658 0.0 
1.20065 0.0744888 0.0 
1.14358 0.0618746 0.0 
0.994485 0.0184848 0.0 
1.14053 0.0699702 0.0 
0.991831 0.0245495 0.0 
0.948567 -0.164075 0.0 
1 0 0.0 
1.15608 0.0326131 0.0 
0.961968 0.18957 0.0 
0.992777 0.0230599 0.0 
1.14387 -0.0840281 0.0 
1.04377 0.0143862 0.0 
1.04443 0.0160364 0.0 
0.982878 0.0289545 0.0 
0.995353 0.0113367 0.0 
1.12891 0.231522 0.0 
1.11798 0.0897615 0.0 
0.994236 0.0195359 0.0 
0.201429 0.00407652 0.0 
0.958521 0.00113318 0.0 
0.992117 0.0121354 0.0 
0.995281 0.0120467 0.0 
0.384949 -0.00331022 0.0 
0.985541 0.023173 0.0 
0.94871 -0.029299 0.0 
0.953645 -0.00686186 0.0 
0.0984438 -0.00856922 0.0 
1 0 0.0 
1.06506 0 0.0 
1.00804 0.165661 0.0 
1.12004 -0.14544 0.0 
0.932131 0.0357212 0.0 
1.1131 -0.129548 0.0 
0.356495 -0.00489474 0.0 
0.0749314 0.00841676 0.0 
0.989664 0.0128646 0.0 
0.985677 0.021692 0.0 
0.987464 0.0159974 0.0 
0.991679 0.0142889 0.0 
1.10954 -0.173035 0.0 
1.0663 -0.00986612 0.0 
1.07989 0.14627 0.0 
1.12083 0.0826442 0.0 
0.283474 -0.00466583 0.0 
0.956858 0.0789315 0.0 
1.00058 0.020156 0.0 
1.11175 0.256527 0.0 
0.972356 0.0324406 0.0 
1.06555 -0.0137086 0.0 
0.959405 0.0377476 0.0 
1.06505 -0.00641224 0.0 
0.513734 -0.0185343 0.0 
0.078457 0.00818891 0.0 
0.0654182 0.0235251 0.0 
0.335831 -0.0111725 0.0 
0.999797 0.0122733 0.0 
0.0819778 0.000496396 0.0 
1.05975 -0.00147119 0.0 
1.16381 -0.0405478 0.0 
1.0666 -0.00435324 0.0 
1 0 0.0 
0.999757 0.01588 0.0 
1.06484 0.0012963 0.0 
0.979148 0.0318697 0.0 
0.103326 0.00794123 0.0 
1.05935 0.0054002 0.0 
0.0831225 0.00804511 0.0 
1.05668 0.012789 0.0 
0.920468 0.0279302 0.0 
1.04018 0.000919323 0.0 
0.957487 0.0580999 0.0 
0.999939 0.0211545 0.0 
1.19531 -0.108872 0.0 
0.718216 -0.0215604 0.0 
1.03719 -0.0307081 0.0 
1.04212 -0.0360272 0.0 
1.07302 -0.0427445 0.0 
1.05229 0.00976071 0.0 
1.06599 -0.0120255 0.0 
1.18515 0.0201237 0.0 
1.03953 0.013642 0.0 
1.24085 0.0854118 0.0 
1.03477 0.0288779 0.0 
0.999963 0.0169219 0.0 
1.16865 0.108102 0.0 
1.06364 -0.01883 0.0 
0.977932 -0.043803 0.0 
0.947924 0.0739142 0.0 
0.944344 0.0372233 0.0 
1.01426 0.0419312 0.0 
1.13192 -0.0031174 0.0 
0.929033 0.0325778 0.0 
1.00914 -0.00494799 0.0 
1.0616 0 0.0 
1.06213 -0.00255053 0.0 
0.933981 0.0542634 0.0 
1.13966 -0.163073 0.0 
0.935875 0.160256 0.0 
1.1039 -0.194605 0.0 
0.952768 -0.0200583 0.0 
1.08804 0.2504 0.0 
0.983345 0.0272641 0.0 
1.08734 0.103869 0.0 
0.792397 0.100714 0.0 
1.17586 0.104549 0.0 
0.505323 -0.010684 0.0 
1.07722 0.185641 0.0 
1.00409 0.0211751 0.0 
1.05632 0.0155561 0.0 
1.0424 0.00881663 0.0 
1.04852 -0.000610266 0.0 
1.04669 0.000441943 0.0 
0.10233 0.0176199 0.0 
1.04117 0.00221494 0.0 
0.0155826 0.0236152 0.0 
1.09666 -0.0581093 0.0 
1.00413 0.0349114 0.0 
1.04438 0.00946966 0.0 
1 0 0.0 
0.98333 0.0261028 0.0 
1.19389 0.093781 0.0 
0.816369 -0.0556822 0.0 
0.999609 0.0153241 0.0 
0.991869 0.0388054 0.0 
1.05068 0.0103991 0.0 
1.05522 0.00563627 0.0 
0.940102 0.188911 0.0 
0.782791 0.130113 0.0 
1.00433 0.0182095 0.0 
1.1512 0.131474 0.0 
1.00016 0.2431 0.0 
0.999115 0.0119685 0.0 
0.986113 0.0290018 0.0 
1.05214 0.00152139 0.0 
0.938074 0.124519 0.0 
0.218432 -0.00970901 0.0 
1.05115 0.00363405 0.0 
0.174368 0.0989613 0.0 
1.05139 -0.000554414 0.0 
1.05273 -0.0248149 0.0 
1.01599 0.0471128 0.0 
1.14153 -0.0657706 0.0 
1.04778 0.00255412 0.0 
0.95714 -0.00625897 0.0 
0.3547 0.01228 0.0 
1.06246 -0.0222878 0.0 
0.946706 -0.00145753 0.0 
0.999814 0.015018 0.0 
1.06 -0.0271653 0.0 
0.941961 0.0656363 0.0 
1.19651 -0.0431872 0.0 
0.317603 -0.0383923 0.0 
0.643394 -0.0269003 0.0 
0.941233 -0.00463207 0.0 
0.964882 0.272231 0.0 
0.252213 0.0477297 0.0 
0.997249 0.315797 0.0 
0.977617 -0.0152911 0.0 
1.07852 -0.0419419 0.0 
0.744153 -0.00277869 0.0 
0.358045 0.116328 0.0 
1.10186 0.0691671 0.0 
0.998719 0.0120757 0.0 
0.5911 -0.000802211 0.0 
0.199313 0.0103286 0.0 
0.914804 -0.0433924 0.0 
0.810063 -0.0365473 0.0 
1.03033 0.0452826 0.0 
0.998787 0.0116723 0.0 
1.02647 -0.0975962 0.0 
1.11926 -0.0319579 0.0 
1.17418 0.022042 0.0 
0.079567 0.00629368 0.0 
0.93654 -0.0575781 0.0 
1.03349 0.0405263 0.0 
1.06599 -0.00760727 0.0 
0.938232 -0.00901454 0.0 
0.109972 0.0102465 0.0 
0.998813 0.0125932 0.0 
1.17237 0.0270247 0.0 
1.05868 -0.0264777 0.0 
0.964071 0.215945 0.0 
1.05082 0.01442 0.0 
1.06729 0.000672261 0.0 
1.06726 0.00542655 0.0 
0.954656 0.0375116 0.0 
1.06052 -0.0242474 0.0 
0.998942 0.0137684 0.0 
0.952348 0.00701854 0.0 
1.14285 -0.0308498 0.0 
1.05336 0.0208644 0.0 
0.989389 0.00725806 0.0 
0.953536 0.0152751 0.0 
0.998983 0.0139526 0.0 
1.05735 0.00578032 0.0 
1.04155 -0.00449327 0.0 
1.06052 -0.0215142 0.0 
0.990555 0.00889751 0.0 
1.02072 0.0452539 0.0 
0.998895 0.0132156 0.0 
1.04619 -0.0261664 0.0 
1.06408 0.0195749 0.0 
0.0566984 0.0228034 0.0 
0.0661599 0.010405 0.0 
1.06724 0.0154766 0.0 
0.905654 -0.0564344 0.0 
0.894888 -0.0466016 0.0 
0.882469 0.119682 0.0 
0.999428 0.0138898 0.0 
0.998874 0.0138723 0.0 
0.962908 -0.0132325 0.0 
0.965083 -0.00202426 0.0 
1.03414 0.0252156 0.0 
0.964066 0.234825 0.0 
1.06742 0.151661 0.0 
1.02938 -0.044419 0.0 
0.0672563 0.0141921 0.0 
1.16054 0.0219985 0.0 
1.08809 0.14178 0.0 
0.998731 0.0133955 0.0 
1.01551 0.0350525 0.0 
1.11061 -0.00858473 0.0 
0.982918 0.0208897 0.0 
0.934646 0.0464026 0.0 
1.03183 -0.0286682 0.0 
0.973477 0.0373246 0.0 
0.941401 0.108927 0.0 
0.934324 0.0589141 0.0 
0.859547 -0.0525026 0.0 
0.962982 0.00706467 0.0 
0.794645 -0.0471662 0.0 
1.00104 0.0180657 0.0 
1.03036 0.0427934 0.0 
0.953926 -0.01024 0.0 
0.961669 -0.00106952 0.0 
0.92278 0.0341935 0.0 
1.1016 0.248747 0.0 
0.972432 0.00602365 0.0 
0.942872 0.291755 0.0 
0.94554 0.032756 0.0 
0.975511 0.226335 0.0 
0.850392 0.285979 0.0 
0.995223 0.00746684 0.0 
1.0013 0 0.0 
0.998834 0.0120638 0.0 
0.977361 0.00149043 0.0 
0.895712 0.153608 0.0 
0.136124 0.0084528 0.0 
1.01068 0.043343 0.0 
0.980854 0.00709294 0.0 
0.999411 0.0124585 0.0 
0.916079 -0.0718404 0.0 
0.9168 0.0329895 0.0 
1.19999 -0.0314447 0.0 
0.998723 0.0123323 0.0 
0.973161 0.0794239 0.0 
0.799346 -0.0961351 0.0 
1.03414 -0.0229402 0.0 
0.936386 0.0636416 0.0 
0.995323 0.0161328 0.0 
0.944572 0.0275186 0.0 
0.991114 0.0199694 0.0 
0.0765669 0.0111697 0.0 
0.792106 -0.0860675 0.0 
1.0415 -0.00374264 0.0 
1.14948 0.0849634 0.0 
1.15927 -0.0423196 0.0 
0.997714 0.0106383 0.0 
0.98226 0.0185294 0.0 
1.00517 0.201911 0.0 
1.11452 0.157323 0.0 
0.584672 0.095336 0.0 
0.95141 0.189082 0.0 
0.981636 0.0188969 0.0 
0.346066 -0.0479379 0.0 
0.982637 0.0218124 0.0 
0.99732 0.0126811 0.0 
1.00037 0.0195228 0.0 
0.2952 -0.0376954 0.0 
0.246212 -0.030017 0.0 
0.98184 0.0300573 0.0 
0.339264 0.0579718 0.0 
1.19261 0.089543 0.0 
1.00992 0.0428193 0.0 
0.981004 0.0323159 0.0 
0.999736 0.0194314 0.0 
0.978021 0.0111782 0.0 
0.930488 0.0686945 0.0 
0.976702 0.0257029 0.0 
0.852345 0.285173 0.0 
0.528086 -0.0453509 0.0 
0.268273 -0.0339917 0.0 
0.968308 0.0134697 0.0 
0.974901 0.0120882 0.0 
1.05469 0.204563 0.0 
0.359934 -0.0435185 0.0 
0.940013 0.0209843 0.0 
1.03509 -0.0379759 0.0 
0.983366 0.245782 0.0 
0.999278 0.0135302 0.0 
0.922745 0.0818117 0.0 
0.972471 0.0309697 0.0 
0.930387 0.143287 0.0 
0.960538 0.156081 0.0 
1.00921 0.255172 0.0 
0.746421 -0.0402446 0.0 
0.937564 -0.0523247 0.0 
1.11236 0.0605722 0.0 
0.470054 0.0935901 0.0 
0.926698 -0.0596464 0.0 
0.152131 0.00209268 0.0 
0.899285 -0.0128577 0.0 
0.750167 0.13585 0.0 
0.915414 -0.0664143 0.0 
0.92248 -0.0561374 0.0 
0.615431 0.165184 0.0 
1.04737 0.00749932 0.0 
0.941166 0.173386 0.0 
0.879907 -0.00491194 0.0 
0.928596 -0.0537177 0.0 
1.03894 -0.00596939 0.0 
0.34148 0.0414565 0.0 
1.03646 -0.00886649 0.0 
0.866318 0.00741536 0.0 
0.898215 0.217277 0.0 
1.0467 -0.000804392 0.0 
0.906996 -0.0880828 0.0 
0.922466 0.182743 0.0 
0.341138 -0.0466231 0.0 
1.12581 0.0636348 0.0 
1.03547 0.16998 0.0 
0.83158 0.380902 0.0 
1.10241 0.164632 0.0 
1.06463 0.259752 0.0 
0.996186 -0.0552711 0.0 
0.76266 -0.111506 0.0 
0.977812 0.0332985 0.0 
0.524207 0.0616541 0.0 
0.918723 -0.0526354 0.0 
1.04377 0.0673633 0.0 
0.229762 -0.00387301 0.0 
1.04426 0.263597 0.0 
1.05619 0.0410273 0.0 
0.87925 0.105308 0.0 
1.00515 0.0216785 0.0 
0.892978 0.0669679 0.0 
0.183608 0.00429157 0.0 
0.853535 0.0764317 0.0 
0.949573 0.036864 0.0 
0.947451 0.00387665 0.0 
1.17293 -0.0369492 0.0 
0.763951 0.335433 0.0 
0.847897 0.0891507 0.0 
1.02847 0.0726792 0.0 
1.08234 -0.0947725 0.0 
0.921373 -0.0468694 0.0 
1.04038 0.271843 0.0 
0.964841 0.0168661 0.0 
0.995747 0.0401805 0.0 
0.910477 0.0770271 0.0 
0.924812 0.112643 0.0 
0.910874 0.0354366 0.0 
1.00923 0.0273833 0.0 
0.920047 0.10596 0.0 
0.9177 0.220867 0.0 
0.999203 0.012625 0.0 
1.092 -0.0700641 0.0 
0.356837 -0.0513794 0.0 
1.05429 0.251085 0.0 
0.966442 0.203027 0.0 
0.807373 0.151286 0.0 
0.827204 0.0382232 0.0 
0.886505 0.0298576 0.0 
1.04246 0.305208 0.0 
0.999597 0.0172782 0.0 
1.12501 0.139582 0.0 
1.03342 0.226369 0.0 
0.886713 -0.0483179 0.0 
0.923098 -0.00191656 0.0 
0.858639 0.158445 0.0 
0.91114 0.0206718 0.0 
0.885391 0.0148706 0.0 
0.932613 -0.046042 0.0 
0.934446 0.207263 0.0 
0.995725 0.0302585 0.0 
0.999589 0.0147913 0.0 
0.151597 0.00573608 0.0 
0.13357 0.00987266 0.0 
0.913097 0.027782 0.0 
0.527162 0.153698 0.0 
1.03742 -0.00751809 0.0 
0.921952 -0.0163626 0.0 
0.97806 -0.000996771 0.0 
0.902839 0.0764991 0.0 
0.842137 0.0067344 0.0 
1.08191 -0.0664828 0.0 
0.955169 0.00797514 0.0 
0.975605 0.00909349 0.0 
1.08455 0.267665 0.0 
0.275387 -0.0311372 0.0 
0.930922 0.300278 0.0 
0.973081 0.00262419 0.0 
0.988964 0.0540335 0.0 
1.06921 -0.229074 0.0 
0.969065 0.00466913 0.0 
0.961822 0.0125501 0.0 
0.997725 0.0132342 0.0 
1.03702 -0.0085315 0.0 
0.799546 0.108196 0.0 
0.90466 0.0184107 0.0 
0.990972 0.00541132 0.0 
1.02883 -0.182476 0.0 
0.995199 0.0154126 0.0 
0.935642 0.0241252 0.0 
0.81185 0.168114 0.0 
0.950124 -0.00849008 0.0 
0.998122 0.0101203 0.0 
0.938885 0.00472669 0.0 
0.188947 0.128464 0.0 
0.943994 -0.0083929 0.0 
1.06406 -0.00889098 0.0 
0.95424 0.288713 0.0 
0.0989262 0.0171471 0.0 
1.10176 0.254939 0.0 
0.988063 0.0148659 0.0 
0.956503 -0.144747 0.0 
0.968955 0.00183372 0.0 
0.959734 0.00913958 0.0 
0.959979 0.00453742 0.0 
0.544315 0.134889 0.0 
0.962013 0.00185441 0.0 
0.956112 -0.0135752 0.0 
0.6529 0.184235 0.0 
1.03387 -0.0123388 0.0 
1.03379 0.0452096 0.0 
0.997557 0.265908 0.0 
0.981085 0.0208112 0.0 
0.975543 0.0290089 0.0 
0.964778 0.00393033 0.0 
0.893683 0.0129323 0.0 
0.959055 -0.017874 0.0 
0.117923 -0.000170397 0.0 
0.968812 -0.000232504 0.0 
1.05873 0.0175823 0.0 
0.876503 0.168009 0.0 
0.99649 0.0120312 0.0 
1.06368 0.0276403 0.0 
1.05746 0.0947508 0.0 
1.10237 -0.0701346 0.0 
1.09656 0.104514 0.0 
0.976619 -0.00296354 0.0 
0.877165 0.182966 0.0 
0.996653 0.0144356 0.0 
0.996962 0.0111101 0.0 
0.890231 -0.0411942 0.0 
0.97877 0.025776 0.0 
1.1644 -0.226719 0.0 
0.679418 0.0131157 0.0 
0.942199 0.0415479 0.0 
1.01781 0.302615 0.0 
0.908708 0.353254 0.0 
0.83939 0.132077 0.0 
1.15956 0.0744198 0.0 
0.154169 0.134067 0.0 
1.01883 0.289564 0.0 
1.06695 0.265756 0.0 
1.03829 -0.00570797 0.0 
0.93907 0.0941473 0.0 
0.0551879 0.00870386 0.0 
1.1765 0.146638 0.0 
0.977884 0.0318625 0.0 
0.910299 0.121978 0.0 
1.12739 0.219523 0.0 
0.85174 0.124258 0.0 
-0.0397026 -0.0186608 0.0 
0.978972 0.0299942 0.0 
0.925356 0.0735691 0.0 
0.746723 0.140352 0.0 
0.979806 0.0267378 0.0 
0.912105 0.15005 0.0 
0.995898 0.0125067 0.0 
0.903417 0.101408 0.0 
0.9793 0.0279079 0.0 
0.854252 0.0556071 0.0 
0.831378 0.0224794 0.0 
0.90459 0.164125 0.0 
0.998774 0.0113562 0.0 
0.969016 -0.0047064 0.0 
0.980265 0.0250798 0.0 
0.999122 0.0175581 0.0 
0.962874 -0.00473685 0.0 
0.961845 -0.00841003 0.0 
0.966323 -0.00419421 0.0 
0.938587 -0.0414153 0.0 
0.926115 0.0580759 0.0 
0.926749 0.0880287 0.0 
1.03992 -0.00105894 0.0 
0.989817 0.0320065 0.0 
1.06242 0.0288798 0.0 
0.999218 0.0144628 0.0 
1.07707 -0.00529734 0.0 
1.00533 0.0797386 0.0 
0.949874 0.0132857 0.0 
0.977025 0.0270835 0.0 
1.0504 -0.160738 0.0 
1.10216 0.242838 0.0 
1.12505 0.231023 0.0 
0.933733 -0.0321761 0.0 
0.99911 0.0139927 0.0 
0.951363 0.0109406 0.0 
0.996399 0.013587 0.0 
0.979641 0.00537032 0.0 
1.05433 0.0110835 0.0 
1.04929 -0.171461 0.0 
0.0836597 0.00941271 0.0 