<VTKFile type="UnstructuredGrid" version="0.1" byte_order="LittleEndian">
  <UnstructuredGrid>
    <Piece NumberOfPoints="9712" NumberOfCells="19403">
      <Points>
        <DataArray type = "Float64" NumberOfComponents="3" format="ascii">
-5 -7 0.0 
15.5 -7 0.0 
15.5 7 0.0 
-5 7 0.0 
-1.6546 1.77742 0.0 
-2.13867 1.86504 0.0 
-1.83467 1.79143 0.0 
1.47969 -2.21179 0.0 
1.36003 -2.38618 0.0 
1.4346 -2.45048 0.0 
-2.04214 1.94165 0.0 
-0.20425 1.17338 0.0 
-2.07648 1.81911 0.0 
-2.00827 1.89081 0.0 
-2.05492 1.98872 0.0 
0.192693 0.536219 0.0 
0.154285 1.75648 0.0 
1.1379 -1.62057 0.0 
-2.11226 1.96977 0.0 
-1.74119 1.75327 0.0 
1.14499 -1.58184 0.0 
-1.94373 2.37229 0.0 
1.50619 -0.664239 0.0 
1.99658 -1.76705 0.0 
1.7229 -1.18344 0.0 
-1.97759 2.52091 0.0 
-0.768046 0.387136 0.0 
1.32657 -1.43969 0.0 
1.90142 0.24821 0.0 
-0.93264 1.51038 0.0 
1.09557 0.967223 0.0 
0.627111 0.757352 0.0 
-2.05707 2.31394 0.0 
1.34027 -2.45136 0.0 
-0.725097 0.397516 0.0 
-0.666094 2.30428 0.0 
-0.73829 -0.279965 0.0 
1.73336 -1.08822 0.0 
1.88466 -1.24421 0.0 
1.50539 -1.23752 0.0 
1.65978 -1.30759 0.0 
-0.0409718 0.542603 0.0 
1.6005 -1.1227 0.0 
1.78439 -0.941488 0.0 
1.86015 -1.54236 0.0 
1.49308 -1.40058 0.0 
2.34892 -1.47149 0.0 
2.13832 -1.3246 0.0 
1.73061 0.751302 0.0 
-0.580328 0.526903 0.0 
1.51013 -2.1595 0.0 
-1.65424 3.45779 0.0 
-1.51397 2.46352 0.0 
1.42773 -2.17867 0.0 
0.304353 0.497878 0.0 
2.24628 0.228293 0.0 
1.51258 -2.27933 0.0 
-1.60346 3.44299 0.0 
-1.71408 2.36227 0.0 
2.17421 0.530405 0.0 
2.42 0.316451 0.0 
-1.63642 3.31911 0.0 
2.53942 -0.995036 0.0 
0.750003 0.810439 0.0 
2.04736 0.40918 0.0 
1.19615 -1.50641 0.0 
2.13474 0.494063 0.0 
0.547924 0.306722 0.0 
-0.2059 0.361394 0.0 
2.2127 0.547693 0.0 
1.41442 -0.597105 0.0 
1.52233 -1.46252 0.0 
-1.84114 2.53924 0.0 
-5 -2.53894 0.0 
2.32127 0.371156 0.0 
-1.69186 3.33379 0.0 
-0.964779 0.566136 0.0 
-1.81311 2.48387 0.0 
-1.78557 3.38304 0.0 
1.48278 0.914136 0.0 
2.51531 -1.89689 0.0 
1.20982 -0.330514 0.0 
0.408434 0.319657 0.0 
0.95023 0.60993 0.0 
-0.752349 0.440796 0.0 
-0.998248 0.564019 0.0 
-1.73165 3.36299 0.0 
1.24353 -1.49063 0.0 
0.942095 0.817189 0.0 
-1.77816 2.47096 0.0 
2.48183 -1.95479 0.0 
1.33574 -1.77854 0.0 
0.823335 1.12085 0.0 
-0.36308 0.598468 0.0 
0.745466 0.783414 0.0 
-1.88344 2.8521 0.0 
-1.79794 3.52221 0.0 
3.0087 0.272815 0.0 
-1.81486 2.66014 0.0 
0.375911 -0.403668 0.0 
-0.68323 0.487288 0.0 
-0.34187 -0.274923 0.0 
-0.293875 -0.201368 0.0 
1.61018 -1.767 0.0 
-0.448275 -0.347267 0.0 
-1.08687 0.352015 0.0 
1.29257 -1.76345 0.0 
1.67658 -1.49551 0.0 
1.19193 0.533009 0.0 
1.21582 -1.91654 0.0 
-0.36438 -0.346225 0.0 
-0.92534 0.330346 0.0 
2.3836 0.287756 0.0 
1.68841 0.639887 0.0 
1.59001 -1.89458 0.0 
1.14818 -1.92143 0.0 
1.28996 -2.19426 0.0 
1.37603 -1.8763 0.0 
1.23834 -2.09141 0.0 
1.11702 -2.06287 0.0 
0.691829 0.463808 0.0 
1.46523 -2.03459 0.0 
-0.123547 0.424486 0.0 
-1.3311 2.12174 0.0 
1.08169 -1.90074 0.0 
1.87975 -2.15971 0.0 
1.10131 -1.78593 0.0 
1.13722 0.534683 0.0 
1.42465 -1.59031 0.0 
-1.45435 2.47344 0.0 
1.41998 -1.98207 0.0 
0.463917 1.8787 0.0 
-1.72896 2.89571 0.0 
1.12419 -1.84975 0.0 
1.59054 -1.20634 0.0 
0.46124 0.621002 0.0 
0.806438 -1.00204 0.0 
2.1804 0.349761 0.0 
2.21142 -1.6418 0.0 
1.10152 -0.274558 0.0 
2.23388 0.387302 0.0 
0.137769 0.567007 0.0 
1.88736 0.267391 0.0 
1.26821 -1.94267 0.0 
0.21033 -0.605707 0.0 
2.61094 -1.50046 0.0 
0.819837 0.743337 0.0 
-1.4303 2.07799 0.0 
1.82013 0.322126 0.0 
-1.47649 2.2099 0.0 
1.15745 -0.274223 0.0 
-1.81198 2.24994 0.0 
2.34337 -1.67775 0.0 
-1.13329 1.37877 0.0 
-0.828215 1.05292 0.0 
2.46752 -1.53452 0.0 
-1.69915 2.18529 0.0 
-0.404416 -0.286271 0.0 
-1.23501 1.31766 0.0 
2.11757 -1.50659 0.0 
-1.08535 1.28274 0.0 
2.58548 -1.70783 0.0 
0.24729 -0.572345 0.0 
-1.66963 2.25319 0.0 
1.58322 -1.62308 0.0 
-0.367923 -0.306026 0.0 
0.391521 1.44485 0.0 
1.88977 -2.46319 0.0 
1.5943 -1.53613 0.0 
-0.357143 -0.23651 0.0 
0.82621 0.80563 0.0 
-1.59261 2.31884 0.0 
-0.47244 -0.307516 0.0 
-0.40334 -0.326688 0.0 
-2.00063 2.11543 0.0 
1.55514 -1.95078 0.0 
-1.40431 2.26352 0.0 
-0.0265928 0.573714 0.0 
1.17093 1.10579 0.0 
-1.77907 2.22111 0.0 
0.682788 0.329642 0.0 
-0.54475 2.15572 0.0 
-0.288592 0.289433 0.0 
-1.43199 2.16349 0.0 
-1.45029 2.25134 0.0 
1.5535 -1.79992 0.0 
-1.06406 1.08381 0.0 
1.72954 1.44966 0.0 
0.582806 0.515814 0.0 
0.582876 -0.679913 0.0 
1.32351 -0.355916 0.0 
-0.47505 0.577092 0.0 
-0.371167 0.227715 0.0 
1.52235 -1.8529 0.0 
-0.429822 -0.244811 0.0 
-0.53237 -0.24648 0.0 
-0.393983 -0.210364 0.0 
0.652895 0.317361 0.0 
1.55812 -1.70765 0.0 
1.63021 0.325622 0.0 
0.442731 0.358729 0.0 
1.22925 -1.85192 0.0 
1.43517 -1.79082 0.0 
1.39317 -1.6984 0.0 
1.62965 0.295952 0.0 
0.905462 0.793465 0.0 
1.04036 -1.64811 0.0 
2.1131 -1.72466 0.0 
-0.743911 0.369492 0.0 
1.14427 -1.99314 0.0 
1.26033 -2.0209 0.0 
-1.70955 2.07308 0.0 
0.910023 -1.62976 0.0 
-0.313059 -0.0954838 0.0 
-1.77334 2.3988 0.0 
-0.311958 -0.24042 0.0 
2.53315 0.325608 0.0 
-0.273728 -0.226719 0.0 
-0.646401 0.379627 0.0 
1.52426 0.616074 0.0 
2.21703 -1.79499 0.0 
2.71108 0.312216 0.0 
0.759924 1.093 0.0 
-1.69271 2.12368 0.0 
0.255794 0.540969 0.0 
0.0534699 0.562158 0.0 
-1.5679 2.22408 0.0 
-1.66906 2.45165 0.0 
-1.51895 2.09449 0.0 
2.16948 0.408238 0.0 
-0.818806 0.680638 0.0 
-0.826868 0.642087 0.0 
0.519855 0.276992 0.0 
-0.716682 1.18602 0.0 
-0.649974 -0.148775 0.0 
0.457368 0.256619 0.0 
0.517407 0.248194 0.0 
0.327129 0.39802 0.0 
0.533249 -0.878832 0.0 
-0.870735 0.634904 0.0 
1.19219 1.07557 0.0 
2.35922 0.366028 0.0 
-1.66911 3.66723 0.0 
-0.857603 1.54934 0.0 
-0.379189 2.30131 0.0 
-0.941007 1.36523 0.0 
-1.58662 2.49682 0.0 
-0.545297 0.352587 0.0 
0.327944 -0.744683 0.0 
-0.312756 0.524741 0.0 
-0.107843 0.506233 0.0 
2.13378 -2.36584 0.0 
1.52689 0.686953 0.0 
-0.119983 0.327909 0.0 
1.02161 -1.53072 0.0 
1.51507 0.39695 0.0 
-0.674484 1.02605 0.0 
-0.564724 -0.148435 0.0 
0.409388 0.290913 0.0 
0.252349 0.30842 0.0 
-1.09282 1.45998 0.0 
1.45674 -1.54484 0.0 
-0.266777 0.782169 0.0 
0.91327 -0.874389 0.0 
1.01208 1.13309 0.0 
-0.897136 1.35063 0.0 
-0.846484 0.489353 0.0 
1.47563 0.663768 0.0 
-1.22282 2.05021 0.0 
0.348906 0.416714 0.0 
1.41913 0.964648 0.0 
0.933289 -0.839038 0.0 
-1.85066 1.40221 0.0 
0.142477 1.99435 0.0 
-0.717809 0.341194 0.0 
-2.21177 1.41584 0.0 
0.396571 0.350929 0.0 
1.25171 -1.60721 0.0 
0.736798 0.393502 0.0 
-0.661427 0.19031 0.0 
2.18751 -2.32769 0.0 
-1.00908 1.6747 0.0 
2.21416 -2.07269 0.0 
-0.779194 0.642011 0.0 
-1.02312 1.3939 0.0 
2.08809 -2.24876 0.0 
-5 -4.48794 0.0 
1.61792 -1.46215 0.0 
-0.974627 1.38947 0.0 
1.81166 -2.48446 0.0 
-1.03635 1.47474 0.0 
0.869004 -1.74424 0.0 
0.956579 -1.78598 0.0 
1.07495 0.540689 0.0 
-1.08005 1.37763 0.0 
0.914755 -0.803058 0.0 
0.611759 -0.305322 0.0 
1.70043 -1.41356 0.0 
0.75708 -0.631542 0.0 
1.21215 1.01979 0.0 
-0.586902 0.440014 0.0 
1.9251 -2.56336 0.0 
-1.58261 1.91091 0.0 
-0.746541 1.26087 0.0 
-1.49915 1.13657 0.0 
-1.46675 0.971536 0.0 
-1.05881 0.930935 0.0 
0.71826 0.415078 0.0 
-0.701697 0.526982 0.0 
-1.56194 2.05157 0.0 
1.15988 0.991244 0.0 
1.38676 0.949615 0.0 
-1.61697 2.02689 0.0 
1.13748 -0.357331 0.0 
-1.8456 2.04561 0.0 
0.253686 -0.756334 0.0 
-1.53603 1.86509 0.0 
-1.43465 0.924137 0.0 
-1.00273 1.27416 0.0 
-1.03063 1.5132 0.0 
-1.32483 1.94769 0.0 
-0.965552 1.61445 0.0 
-0.239859 -0.245939 0.0 
-5 3.01776 0.0 
-5 -0.248741 0.0 
0.517491 1.87079 0.0 
-1.18776 1.8875 0.0 
2.27458 0.36201 0.0 
1.9794 0.331487 0.0 
0.503086 0.510306 0.0 
1.26387 -0.370702 0.0 
1.24483 0.550197 0.0 
1.12871 0.979556 0.0 
-1.48659 1.83259 0.0 
1.0672 0.958366 0.0 
-1.16856 1.61214 0.0 
-0.218637 -0.230696 0.0 
-5 1.81431 0.0 
1.37014 1.04658 0.0 
0.0950623 0.557621 0.0 
-1.23613 1.67303 0.0 
0.953731 -0.709843 0.0 
2.07568 -1.85385 0.0 
2.10836 -1.82014 0.0 
-0.994952 1.33552 0.0 
-1.86986 1.52312 0.0 
0.515812 0.447542 0.0 
0.842446 0.992035 0.0 
-1.42353 1.8223 0.0 
2.091 0.354014 0.0 
-0.937663 0.401428 0.0 
-1.69305 1.41997 0.0 
-1.82465 1.55127 0.0 
2.15192 0.384657 0.0 
-1.17972 1.37998 0.0 
-0.718866 -0.0130647 0.0 
-0.927867 0.290435 0.0 
1.56509 0.300406 0.0 
-5 -3.04052 0.0 
9.98027 -7 0.0 
0.176009 0.694641 0.0 
0.597997 -0.559941 0.0 
-0.546583 0.4849 0.0 
0.602022 -0.657834 0.0 
2.17737 0.379672 0.0 
1.89809 0.287017 0.0 
-1.58883 1.35796 0.0 
-1.2284 1.37063 0.0 
-1.43937 1.35342 0.0 
-1.59664 1.47263 0.0 
0.577431 -0.368705 0.0 
1.5263 -1.51093 0.0 
0.479666 0.796509 0.0 
0.894995 1.01463 0.0 
2.22312 0.363016 0.0 
-0.320562 0.726481 0.0 
-1.30188 2.41386 0.0 
0.43802 0.434693 0.0 
-0.761697 0.762024 0.0 
1.45688 -1.49591 0.0 
-0.65072 0.676835 0.0 
1.6097 -1.41509 0.0 
2.25768 0.399237 0.0 
1.85518 0.299709 0.0 
2.14618 0.290757 0.0 
2.25222 0.371677 0.0 
-1.93063 2.91367 0.0 
1.52717 0.319618 0.0 
1.67964 -1.62237 0.0 
1.35962 -0.439169 0.0 
1.63007 -1.54335 0.0 
-5 -0.764504 0.0 
-1.61377 2.62271 0.0 
1.73865 -1.57725 0.0 
-0.908306 1.23669 0.0 
1.60766 0.330292 0.0 
1.82509 -1.63054 0.0 
1.90521 0.312457 0.0 
1.98719 -1.6488 0.0 
-0.528791 0.39225 0.0 
1.94978 -2.39003 0.0 
-0.472559 0.718465 0.0 
-1.28058 2.26572 0.0 
0.881581 -0.556282 0.0 
2.26369 0.42542 0.0 
0.917309 -1.69962 0.0 
0.853954 -1.60945 0.0 
1.30086 -0.404316 0.0 
1.99565 -2.46852 0.0 
1.49445 -1.47573 0.0 
1.68285 0.863315 0.0 
2.03074 -2.37549 0.0 
2.52279 -0.506167 0.0 
2.56049 -1.76899 0.0 
-1.52889 2.56597 0.0 
2.81136 -0.570221 0.0 
1.3688 -1.46095 0.0 
1.29524 -0.373946 0.0 
-0.350504 0.671928 0.0 
-0.590282 0.564035 0.0 
-0.054366 2.16706 0.0 
1.50819 1.22548 0.0 
-0.548222 0.453941 0.0 
2.19936 -2.5207 0.0 
12.2704 -7 0.0 
1.6811 -1.36761 0.0 
-0.449261 0.559535 0.0 
0.537017 -0.527614 0.0 
-0.00733391 0.553304 0.0 
0.494109 -0.356396 0.0 
-0.7939 0.0827441 0.0 
0.39888 0.467333 0.0 
-1.04288 1.34095 0.0 
0.605019 1.02824 0.0 
0.847559 0.374727 0.0 
1.00336 0.618307 0.0 
2.1955 0.399186 0.0 
0.656973 0.401158 0.0 
-0.998431 2.73564 0.0 
[...]
<PointData>
  <DataArray type = "Float64" Name="VitesseP1" NumberOfComponents="3" format="ascii">
1 0 0.0 
1.09294 0 0.0 
1.03798 0 0.0 
1 0 0.0 
0.994704 0.0154696 0.0 
0.996965 0.0108484 0.0 
0.995568 0.0132983 0.0 
1.04317 -0.00329115 0.0 
1.04522 -0.00419812 0.0 
1.05083 -0.00371844 0.0 
0.9978 0.011761 0.0 
0.986891 0.0723351 0.0 
0.996661 0.0111764 0.0 
0.996876 0.0119521 0.0 
0.998942 0.0117612 0.0 
0.992408 0.218142 0.0 
1.02029 0.0529685 0.0 
1.04978 -0.0259323 0.0 
0.998864 0.0111914 0.0 
0.995106 0.0142172 0.0 
1.05529 -0.0269097 0.0 
0.99893 0.0130443 0.0 
1.16088 -0.0264679 0.0 
1.04699 0.0124168 0.0 
1.0648 -0.00208996 0.0 
0.998906 0.0126211 0.0 
0.944632 0.00851974 0.0 
1.06395 -0.0219935 0.0 
0.0652813 0.00111349 0.0 
0.98896 0.0310176 0.0 
1.14395 0.0684463 0.0 
1.11039 0.142518 0.0 
0.99891 0.0120698 0.0 
1.03486 -0.0174519 0.0 
0.941476 0.0121087 0.0 
1.00562 0.0298292 0.0 
0.936973 -0.0515176 0.0 
1.08589 -0.00198204 0.0 
1.0577 0.00871607 0.0 
1.05499 -0.015709 0.0 
1.05789 -0.00509249 0.0 
0.927026 0.151522 0.0 
1.0762 -0.0112981 0.0 
1.1276 0.00126917 0.0 
1.06938 0.00717569 0.0 
1.06446 -0.0137783 0.0 
1.06479 0.0348256 0.0 
1.05877 0.0244962 0.0 
1.2033 0.0315651 0.0 
0.939647 0.0354443 0.0 
1.04182 -0.00330881 0.0 
1.00247 0.0119105 0.0 
0.999924 0.0171203 0.0 
1.04124 -0.00489211 0.0 
1.03781 0.243245 0.0 
0.0453284 -0.00506123 0.0 
1.04503 -0.00221729 0.0 
1.00269 0.0122929 0.0 
0.999174 0.0152654 0.0 
1.15825 0.00490486 0.0 
0.0970526 0.000536559 0.0 
1.00242 0.0125601 0.0 
1.0982 0.0611623 0.0 
1.12345 0.121137 0.0 
0.528825 0.00645936 0.0 
1.06156 -0.0268566 0.0 
1.05593 0.00642266 0.0 
0.555563 0.134642 0.0 
0.862861 0.0853218 0.0 
1.18342 0.000359826 0.0 
1.20338 -0.0382447 0.0 
1.06796 -0.0113492 0.0 
0.99913 0.0137364 0.0 
1 0 0.0 
0.279166 -0.00572102 0.0 
1.00219 0.0121595 0.0 
0.968197 0.0103916 0.0 
0.99915 0.0140917 0.0 
1.00178 0.0113808 0.0 
1.17626 0.0369925 0.0 
1.03848 0.0245546 0.0 
0.751282 -0.0406752 0.0 
0.948313 0.263112 0.0 
1.1738 0.116043 0.0 
0.946267 0.0140519 0.0 
0.970008 0.00868933 0.0 
1.00208 0.0117927 0.0 
1.06295 -0.0250641 0.0 
1.14442 0.0981105 0.0 
0.999217 0.0144356 0.0 
1.04491 0.0288898 0.0 
1.04255 -0.0142536 0.0 
1.09784 0.079576 0.0 
0.935628 0.0698793 0.0 
1.12575 0.125299 0.0 
0.999971 0.0125173 0.0 
1.00215 0.0106229 0.0 
-0.0200583 -0.148412 0.0 
0.999331 0.0136558 0.0 
1.19134 -0.234675 0.0 
0.944165 0.0228205 0.0 
0.918872 -0.0885633 0.0 
0.915638 -0.0746787 0.0 
1.04704 -0.00367909 0.0 
0.924501 -0.0784614 0.0 
0.967254 -0.00832535 0.0 
1.04221 -0.0162298 0.0 
1.06981 -0.00270012 0.0 
1.19661 0.0847255 0.0 
1.03806 -0.0157365 0.0 
0.920213 -0.0888143 0.0 
0.954951 -0.00382711 0.0 
0.0632702 0.00780987 0.0 
1.20503 0.0386011 0.0 
1.04426 -0.00346143 0.0 
1.03647 -0.0175965 0.0 
1.03878 -0.00753062 0.0 
1.04192 -0.011114 0.0 
1.0359 -0.0114553 0.0 
1.03286 -0.0165487 0.0 
1.16371 0.184657 0.0 
1.03962 -0.0059111 0.0 
0.877403 0.125894 0.0 
0.999182 0.0206104 0.0 
1.03529 -0.020185 0.0 
1.04199 0.0056619 0.0 
1.03733 -0.0225974 0.0 
1.19621 0.0920893 0.0 
1.06159 -0.0142834 0.0 
1.00018 0.0177346 0.0 
1.03954 -0.00803695 0.0 
1.03025 0.0463134 0.0 
1.0008 0.0135244 0.0 
1.03707 -0.0202197 0.0 
1.05969 -0.0106626 0.0 
1.08777 0.189329 0.0 
1.06886 -0.0733665 0.0 
0.129724 0.00823707 0.0 
1.05498 0.0235161 0.0 
0.45588 -0.0391948 0.0 
0.369792 -0.00219131 0.0 
0.977826 0.196526 0.0 
0.0703957 -0.00610585 0.0 
1.03817 -0.0135309 0.0 
1.0309 -0.160734 0.0 
1.05266 0.050368 0.0 
1.13999 0.121243 0.0 
0.998872 0.019239 0.0 
0.0782275 0.00480587 0.0 
0.999056 0.0183087 0.0 
0.40913 -0.0170575 0.0 
0.998844 0.0143779 0.0 
1.04656 0.0283369 0.0 
0.985344 0.0242971 0.0 
0.973605 0.0341365 0.0 
1.05767 0.0393786 0.0 
0.99868 0.0156173 0.0 
0.922873 -0.0797035 0.0 
0.984338 0.0207304 0.0 
1.06853 0.0211422 0.0 
0.981785 0.0251645 0.0 
1.03399 0.035319 0.0 
1.04022 -0.171237 0.0 
0.998971 0.015898 0.0 
1.05929 -0.00626725 0.0 
0.920296 -0.086079 0.0 
1.03505 0.0692309 0.0 
1.04862 -0.00130847 0.0 
1.06835 -0.00667988 0.0 
0.916517 -0.0818833 0.0 
1.13348 0.113056 0.0 
0.999294 0.0166634 0.0 
0.927769 -0.0728996 0.0 
0.922339 -0.0827758 0.0 
0.998681 0.0124733 0.0 
1.04199 -0.00420441 0.0 
0.999561 0.0191198 0.0 
0.939107 0.151475 0.0 
1.13232 0.0496014 0.0 
0.998787 0.0147334 0.0 
0.632003 0.11072 0.0 
1.00627 0.0339103 0.0 
0.863426 0.0452651 0.0 
0.999012 0.0190244 0.0 
0.999362 0.018547 0.0 
1.04531 -0.00564363 0.0 
0.974144 0.0236843 0.0 
1.07366 -0.0423465 0.0 
1.14155 0.200103 0.0 
1.10908 -0.129142 0.0 
0.869355 -0.0309085 0.0 
0.938325 0.0517002 0.0 
0.875104 0.0162139 0.0 
1.04431 -0.00628264 0.0 
0.924116 -0.0732666 0.0 
0.933241 -0.06275 0.0 
0.918831 -0.0744133 0.0 
0.579748 0.110944 0.0 
1.05034 -0.00647064 0.0 
0.112382 0.0171683 0.0 
1.03684 0.265161 0.0 
1.03946 -0.0166608 0.0 
1.04405 -0.0103286 0.0 
1.04879 -0.0136592 0.0 
0.0922701 0.0252159 0.0 
1.14353 0.104774 0.0 
1.04377 -0.0288579 0.0 
1.04799 0.0177343 0.0 
0.941525 0.00835755 0.0 
1.03406 -0.0164679 0.0 
1.03617 -0.0121726 0.0 
0.998794 0.0155097 0.0 
1.04091 -0.0341783 0.0 
0.89858 -0.0656762 0.0 
0.99914 0.0146085 0.0 
0.909751 -0.0859044 0.0 
0.162141 -0.00968858 0.0 
0.887869 -0.0840991 0.0 
0.932721 0.0158791 0.0 
1.20256 0.049289 0.0 
1.04397 0.021193 0.0 
0.239229 -0.0257503 0.0 
1.09713 0.087179 0.0 
0.998623 0.0157059 0.0 
1.01912 0.223114 0.0 
0.951663 0.177242 0.0 
0.99898 0.0171286 0.0 
0.999431 0.0155316 0.0 
0.998831 0.0179537 0.0 
0.517974 0.000593905 0.0 
0.967771 0.0248578 0.0 
0.965472 0.0223685 0.0 
0.413399 0.135789 0.0 
0.976743 0.0405601 0.0 
0.940209 -0.0446019 0.0 
0.30072 0.101437 0.0 
0.37461 0.184468 0.0 
1.06314 0.296957 0.0 
1.06921 -0.102949 0.0 
0.96723 0.0192872 0.0 
1.13996 0.0499909 0.0 
0.265591 -0.00531961 0.0 
1.00068 0.0112006 0.0 
0.990577 0.0333231 0.0 
1.0098 0.034299 0.0 
0.983988 0.0307348 0.0 
0.999749 0.0162443 0.0 
0.918843 0.0211431 0.0 
1.05881 -0.131593 0.0 
0.919098 0.0754934 0.0 
0.908834 0.131868 0.0 
1.04796 0.0143237 0.0 
1.19437 0.046162 0.0 
0.829961 0.116607 0.0 
1.05595 -0.0336955 0.0 
0.548833 0.0227908 0.0 
0.975912 0.0432183 0.0 
0.932598 -0.0504889 0.0 
0.701175 0.194651 0.0 
0.898947 0.33899 0.0 
0.987452 0.0259376 0.0 
1.06606 -0.0133938 0.0 
0.967441 0.0860532 0.0 
1.11326 -0.0768 0.0 
1.1126 0.0625374 0.0 
0.983376 0.0323835 0.0 
0.956367 0.0118631 0.0 
1.19465 0.0510896 0.0 
0.999282 0.0226105 0.0 
1.07744 0.284028 0.0 
1.16906 0.0382249 0.0 
1.12373 -0.0778347 0.0 
0.99415 0.00988877 0.0 
1.0187 0.0445085 0.0 
0.937539 0.00724996 0.0 
0.997264 0.00823729 0.0 
1.018 0.284431 0.0 
1.05515 -0.021537 0.0 
0.998908 0.15176 0.0 
0.925209 -0.00681348 0.0 
1.03755 0.0333907 0.0 
0.99299 0.0283552 0.0 
1.03786 0.0179392 0.0 
0.962892 0.0255572 0.0 
0.985197 0.0279402 0.0 
1.03794 0.00871967 0.0 
1 0 0.0 
1.06911 -0.00613115 0.0 
0.984929 0.0295834 0.0 
1.04665 -0.000540513 0.0 
0.987753 0.0277118 0.0 
1.0312 -0.0312717 0.0 
1.03348 -0.0273689 0.0 
1.19351 0.101088 0.0 
0.984983 0.0259786 0.0 
1.12939 -0.0824523 0.0 
0.913004 -0.146779 0.0 
1.06758 -0.00194859 0.0 
1.12782 -0.114995 0.0 
1.14868 0.0526062 0.0 
0.931447 0.027126 0.0 
1.03715 0.00174875 0.0 
0.996047 0.0169002 0.0 
0.97999 0.038905 0.0 
0.984179 0.0109051 0.0 
0.995536 0.0101633 0.0 
0.990116 0.0210236 0.0 
1.08892 0.168717 0.0 
0.948698 0.0243595 0.0 
0.998793 0.0173397 0.0 
1.14717 0.0600449 0.0 
1.16757 0.0419385 0.0 
0.998534 0.016596 0.0 
0.930108 -0.0574271 0.0 
0.999136 0.0139187 0.0 
1.04293 -0.128351 0.0 
0.995154 0.0174935 0.0 
1.00023 0.0108108 0.0 
0.980934 0.0280449 0.0 
0.989002 0.0279452 0.0 
0.996709 0.0210358 0.0 
0.992072 0.0297494 0.0 
0.882233 -0.105897 0.0 
1 0 0.0 
1 0 0.0 
1.03219 0.0456417 0.0 
0.995412 0.0236696 0.0 
0.21354 0.000315647 0.0 
0.0587727 0.0117368 0.0 
1.1171 0.21728 0.0 
0.958546 -0.0456548 0.0 
1.20113 0.0785491 0.0 
1.14565 0.0641062 0.0 
0.994591 0.0181987 0.0 
1.14234 0.0720778 0.0 
0.991961 0.0242524 0.0 
0.948328 -0.164262 0.0 
1 0 0.0 
1.15934 0.0354139 0.0 
0.961967 0.189867 0.0 
0.992899 0.022762 0.0 
1.14391 -0.085467 0.0 
1.04419 0.0148778 0.0 
1.04447 0.0165857 0.0 
0.983055 0.0286938 0.0 
0.995411 0.0111177 0.0 
1.12838 0.232527 0.0 
1.11928 0.091162 0.0 
0.994349 0.0192432 0.0 
0.143486 0.00526244 0.0 
0.958607 0.000961216 0.0 
0.992196 0.0119127 0.0 
0.995341 0.0118217 0.0 
0.338651 0.00313548 0.0 
0.985686 0.022914 0.0 
0.948538 -0.0295186 0.0 
0.953751 -0.00703855 0.0 
0.096635 -0.0104645 0.0 
1 0 0.0 
1.07079 0 0.0 
1.00816 0.166069 0.0 
1.12004 -0.146369 0.0 
0.932202 0.0356091 0.0 
1.11298 -0.130447 0.0 
0.305839 0.00262679 0.0 
0.0822599 -0.00317061 0.0 
0.989756 0.0126407 0.0 
0.985815 0.0214376 0.0 
0.987575 0.0157612 0.0 
0.991766 0.014052 0.0 
1.10812 -0.173673 0.0 
1.06806 -0.0104265 0.0 
1.08027 0.147144 0.0 
1.12232 0.0841188 0.0 
0.208887 0.00307603 0.0 
0.956956 0.0789221 0.0 
1.0007 0.0197933 0.0 
1.11131 0.25734 0.0 
0.972422 0.0322634 0.0 
1.06724 -0.0143296 0.0 
0.959481 0.0376034 0.0 
1.06701 -0.00713852 0.0 
0.459051 -0.00545711 0.0 
0.0814748 0.0085029 0.0 
0.0710064 0.014666 0.0 
0.268575 0.000598989 0.0 
0.999847 0.0119681 0.0 
0.0831444 0.00142004 0.0 
1.06002 -0.00175006 0.0 
1.15965 -0.0431786 0.0 
1.06834 -0.00480687 0.0 
1 0 0.0 
0.999876 0.0155441 0.0 
1.06629 0.00100546 0.0 
0.979329 0.0316251 0.0 
0.0988655 0.00777062 0.0 
1.05979 0.00526811 0.0 
0.0785102 -0.000376117 0.0 
1.05704 0.0128847 0.0 
0.920533 0.0278171 0.0 
1.04343 0.000541307 0.0 
0.957576 0.0580177 0.0 
1.00006 0.0207976 0.0 
1.19586 -0.110414 0.0 
0.649371 -0.00776352 0.0 
1.03537 -0.0312679 0.0 
1.04151 -0.0367733 0.0 
1.06812 -0.0450045 0.0 
1.05642 0.0102535 0.0 
1.06781 -0.0126724 0.0 
1.19202 0.0237196 0.0 
1.0429 0.0144283 0.0 
1.24806 0.0813916 0.0 
1.03572 0.0307879 0.0 
1.00008 0.0165795 0.0 
1.18309 0.10666 0.0 
1.06522 -0.0195218 0.0 
0.971423 -0.045791 0.0 
0.94801 0.0738911 0.0 
0.944419 0.0370997 0.0 
1.01444 0.0409337 0.0 
1.13787 -0.00115574 0.0 
0.929105 0.0324634 0.0 
1.0058 -0.0062638 0.0 
1.06829 0 0.0 
1.06403 -0.00333943 0.0 
0.934052 0.0541919 0.0 
1.1397 -0.163939 0.0 
0.935895 0.160452 0.0 
1.10266 -0.195115 0.0 
0.952638 -0.0202752 0.0 
1.08781 0.251166 0.0 
0.983514 0.0270042 0.0 
1.08826 0.104703 0.0 
0.787337 0.101645 0.0 
1.17646 0.10726 0.0 
0.452113 -0.000841979 0.0 
1.07545 0.186759 0.0 
1.00424 0.0207797 0.0 
1.05679 0.0157634 0.0 
1.04332 0.00912278 0.0 
1.04762 -0.000670826 0.0 
1.04626 0.000449342 0.0 
0.0636989 0.0117541 0.0 
1.04237 0.0024136 0.0 
-0.0754992 0.0228063 0.0 
1.04466 -0.0332776 0.0 
1.00433 0.034405 0.0 
1.04488 0.00976124 0.0 
1 0 0.0 
0.983493 0.0258455 0.0 
1.19418 0.0970149 0.0 
0.738965 -0.0321205 0.0 
0.999725 0.0149941 0.0 
0.992113 0.0384737 0.0 
1.05007 0.0105299 0.0 
1.05498 0.00558248 0.0 
0.940086 0.189158 0.0 
0.779182 0.130728 0.0 
1.00453 0.0178127 0.0 
1.14313 0.126272 0.0 
1.00003 0.24354 0.0 
0.999229 0.0116781 0.0 
0.986134 0.0287836 0.0 
1.05129 0.00143943 0.0 
0.938135 0.12464 0.0 
0.142234 0.0209019 0.0 
1.0503 0.00360632 0.0 
0.17321 0.0989615 0.0 
1.05047 -0.000678621 0.0 
1.00233 -0.00710797 0.0 
1.01679 0.0461249 0.0 
1.11366 -0.0392728 0.0 
1.04712 0.00256754 0.0 
0.957242 -0.00643228 0.0 
0.335872 0.0137631 0.0 
1.06386 -0.0228929 0.0 
0.946799 -0.00163194 0.0 
0.999936 0.0146849 0.0 
1.06133 -0.0278527 0.0 
0.942039 0.0655907 0.0 
1.19827 -0.0458045 0.0 
0.229866 -0.00309057 0.0 
0.58073 -0.0111262 0.0 
0.941315 -0.00481075 0.0 
0.964718 0.272574 0.0 
0.250746 0.0479214 0.0 
0.9969 0.31614 0.0 
0.920284 -0.000595237 0.0 
1.07951 -0.0432607 0.0 
0.683427 0.0053588 0.0 
0.356766 0.116327 0.0 
1.10379 0.0703682 0.0 
0.998807 0.0118009 0.0 
0.534805 0.00551612 0.0 
0.130613 0.0458065 0.0 
0.91458 -0.0435625 0.0 
0.735094 -0.0178901 0.0 
1.03253 0.0468596 0.0 
0.99885 0.0114172 0.0 
1.02647 -0.0981283 0.0 
1.11429 -0.0347748 0.0 
1.17722 0.0256885 0.0 
0.0817645 0.00153275 0.0 
0.936479 -0.0578067 0.0 
1.03496 0.0438285 0.0 
1.06797 -0.00829178 0.0 
0.938287 -0.00919868 0.0 
0.0712446 0.00826103 0.0 
0.998889 0.0123234 0.0 
1.1757 0.0304058 0.0 
1.05966 -0.0270667 0.0 
0.964013 0.216274 0.0 
1.05325 0.0172492 0.0 
1.0696 9.85118e-05 0.0 
1.06975 0.00493646 0.0 
0.954733 0.0373745 0.0 
1.06166 -0.0248306 0.0 
0.99903 0.0134799 0.0 
0.952431 0.00684971 0.0 
1.13811 -0.0338043 0.0 
1.05625 0.0202119 0.0 
0.989466 0.00706884 0.0 
0.953611 0.0151097 0.0 
0.999075 0.0136584 0.0 
1.05946 0.00494744 0.0 
1.04191 -0.00508863 0.0 
1.06144 -0.0220521 0.0 
0.99063 0.00869783 0.0 
1.02302 0.0472398 0.0 
0.998937 0.0129623 0.0 
1.04493 -0.0266262 0.0 
1.06715 0.019338 0.0 
0.0625934 0.0222614 0.0 
0.0516375 0.011889 0.0 
1.07025 0.0152901 0.0 
0.905441 -0.0566021 0.0 
0.888149 -0.0480534 0.0 
0.878395 0.120828 0.0 
0.999541 0.0135735 0.0 
0.998953 0.0135907 0.0 
0.963022 -0.0133893 0.0 
0.965166 -0.00219498 0.0 
1.03502 0.0272763 0.0 
0.963968 0.235158 0.0 
1.06773 0.152418 0.0 
1.0305 -0.0444179 0.0 
0.0686119 0.0022364 0.0 
1.16436 0.0252133 0.0 
1.10439 0.146477 0.0 
0.998798 0.0131281 0.0 
1.01696 0.0369852 0.0 
1.11575 -0.00831682 0.0 
0.982952 0.020689 0.0 
0.934718 0.0463114 0.0 
1.03056 -0.0293028 0.0 
0.973545 0.0371554 0.0 
0.941474 0.109009 0.0 
0.934396 0.0588551 0.0 
0.781258 -0.0296064 0.0 
0.963054 0.00689075 0.0 
0.788052 -0.0482401 0.0 
1.00119 0.0176949 0.0 
1.03202 0.0422183 0.0 
0.954029 -0.0104212 0.0 
0.961755 -0.0012408 0.0 
0.922846 0.0340888 0.0 
1.10086 0.249584 0.0 
0.97249 0.00584359 0.0 
0.941888 0.292097 0.0 
0.945615 0.0326218 0.0 
0.975431 0.226698 0.0 
0.849459 0.286213 0.0 
0.995269 0.00727862 0.0 
1.00072 0 0.0 
0.998878 0.0118196 0.0 
0.977414 0.00130898 0.0 
0.892671 0.154393 0.0 
0.131861 0.00885717 0.0 
1.01106 0.0425859 0.0 
0.980894 0.00690393 0.0 
0.999444 0.0122114 0.0 
0.915892 -0.0720209 0.0 
0.916863 0.0328891 0.0 
1.19627 -0.0344424 0.0 
0.998784 0.0120765 0.0 
0.951495 0.0733404 0.0 
0.724811 -0.0662327 0.0 
1.03348 -0.0233107 0.0 
0.936459 0.0635939 0.0 
0.99541 0.0158626 0.0 
0.944647 0.0273768 0.0 
0.991223 0.0197004 0.0 
0.0809733 0.0131945 0.0 
0.717118 -0.0569833 0.0 
1.04475 -0.00239594 0.0 
1.15948 0.0829244 0.0 
1.13727 -0.0199729 0.0 
0.997751 0.0104245 0.0 
0.982391 0.0182978 0.0 
1.0034 0.202711 0.0 
1.11477 0.15858 0.0 
0.581007 0.0957322 0.0 
0.9514 0.189353 0.0 
0.981767 0.0186675 0.0 
0.243093 -0.016753 0.0 
0.982781 0.0215687 0.0 
0.997372 0.0124381 0.0 
1.0005 0.0191665 0.0 
0.188333 -0.0144142 0.0 
0.150821 -0.00408137 0.0 
0.982021 0.0298001 0.0 
0.336418 0.0581728 0.0 
1.19314 0.0928792 0.0 
1.01028 0.0420973 0.0 
0.981196 0.0320615 0.0 
0.999849 0.019089 0.0 
0.978064 0.0109894 0.0 
0.930556 0.0686637 0.0 
0.976755 0.0255115 0.0 
0.85217 0.28532 0.0 
0.457765 -0.0235252 0.0 
0.174461 -0.00269775 0.0 
0.968369 0.0132905 0.0 
0.974951 0.0119023 0.0 
1.05468 0.20525 0.0 
0.257138 -0.0201684 0.0 
0.94009 0.0208384 0.0 
1.03379 -0.038882 0.0 
0.983239 0.246172 0.0 
0.999387 0.0132202 0.0 
0.922805 0.0818171 0.0 
0.972627 0.0307456 0.0 
0.930421 0.143441 0.0 
0.957576 0.157045 0.0 
1.00905 0.25564 0.0 
0.675065 -0.0208059 0.0 
0.937472 -0.0525477 0.0 
1.1184 0.0598576 0.0 
0.467527 0.0938022 0.0 
0.926571 -0.0598585 0.0 
0.0687368 0.010721 0.0 
0.899179 -0.0129928 0.0 
0.746926 0.136329 0.0 
0.915235 -0.0666025 0.0 
0.922325 -0.0563385 0.0 
0.613177 0.165332 0.0 
1.04688 0.00763112 0.0 
0.941173 0.173612 0.0 
0.879838 -0.00502432 0.0 
0.928459 -0.0539275 0.0 
1.04138 -0.00501567 0.0 
0.338955 0.0415912 0.0 
1.03793 -0.00836745 0.0 
0.86629 0.00732484 0.0 
0.896422 0.217652 0.0 
1.04994 -0.000936989 0.0 
0.906782 -0.0882706 0.0 
0.920068 0.183393 0.0 
0.234728 -0.0211414 0.0 
1.13215 0.062663 0.0 
1.03323 0.171112 0.0 
0.830785 0.38099 0.0 
1.10261 0.165736 0.0 
1.06378 0.260481 0.0 
0.9207 -0.0316774 0.0 
0.686427 -0.0796153 0.0 
0.977868 0.0331127 0.0 
0.518782 0.0621738 0.0 
0.918546 -0.0528254 0.0 
1.04821 0.0674523 0.0 
0.136511 0.00353968 0.0 
1.04406 0.264171 0.0 
1.06029 0.0418237 0.0 
0.879263 0.105355 0.0 
1.00529 0.0212762 0.0 
0.893015 0.0669484 0.0 
0.086264 0.0128252 0.0 
0.853539 0.0764376 0.0 
0.949649 0.0367326 0.0 
0.947536 0.00370725 0.0 
1.17446 -0.0395461 0.0 
0.763378 0.335578 0.0 
0.847895 0.0891712 0.0 
1.02955 0.0726122 0.0 
1.08235 -0.0956356 0.0 
0.92119 -0.0470579 0.0 
1.03958 0.272431 0.0 
0.964906 0.0166902 0.0 
0.996011 0.0398039 0.0 
0.910528 0.0770229 0.0 
0.924863 0.112723 0.0 
0.910932 0.0353466 0.0 
1.00932 0.0268043 0.0 
0.920096 0.106022 0.0 
0.917619 0.221095 0.0 
0.99931 0.0123274 0.0 
1.09231 -0.0712118 0.0 
0.25068 -0.0234268 0.0 
1.05326 0.251841 0.0 
0.966414 0.203352 0.0 
0.807345 0.15135 0.0 
0.827147 0.0381874 0.0 
0.886543 0.0297803 0.0 
1.04208 0.305664 0.0 
0.999706 0.0169489 0.0 
1.12543 0.141047 0.0 
1.03333 0.226938 0.0 
0.886433 -0.0484475 0.0 
0.923144 -0.00207614 0.0 
0.858603 0.158548 0.0 
0.911201 0.0205573 0.0 
0.885411 0.0147737 0.0 
0.932468 -0.046251 0.0 
0.934393 0.207513 0.0 
0.995915 0.0298821 0.0 
0.999705 0.0144651 0.0 
0.0644252 0.0138195 0.0 
0.0737244 0.00948956 0.0 
0.913158 0.0276766 0.0 
0.525577 0.153709 0.0 
1.03929 -0.00683946 0.0 
0.92183 -0.0165276 0.0 
0.978114 -0.00117673 0.0 
0.902883 0.0764959 0.0 
0.842044 0.00664561 0.0 
1.08232 -0.0676018 0.0 
0.955249 0.00780519 0.0 
0.975654 0.00890854 0.0 
1.08425 0.268349 0.0 
0.168346 -0.00631858 0.0 
0.930711 0.300521 0.0 
0.973141 0.00244568 0.0 
0.98933 0.0537859 0.0 
1.06909 -0.229536 0.0 
0.96913 0.00449235 0.0 
0.961891 0.0123767 0.0 
0.997777 0.0129842 0.0 
1.03835 -0.00811907 0.0 
0.795192 0.109069 0.0 
0.904713 0.0182999 0.0 
0.99099 0.00521171 0.0 
1.02867 -0.18297 0.0 
0.995283 0.0151503 0.0 
0.935717 0.0239887 0.0 
0.809267 0.168516 0.0 
0.95022 -0.00867225 0.0 
0.998154 0.00991222 0.0 
0.938968 0.00456235 0.0 
0.188343 0.128485 0.0 
0.944068 -0.0085777 0.0 
1.06588 -0.00964672 0.0 
0.954047 0.289015 0.0 
0.0599854 0.00349285 0.0 
1.10143 0.255729 0.0 
0.98808 0.0146634 0.0 
0.876044 -0.110856 0.0 
0.969023 0.00165861 0.0 
0.959809 0.00896772 0.0 
0.960059 0.00436519 0.0 
0.543113 0.134828 0.0 
0.962094 0.00168219 0.0 
0.95621 -0.0137565 0.0 
0.651021 0.184345 0.0 
1.03501 -0.0119424 0.0 
1.03552 0.0445861 0.0 
0.996481 0.266394 0.0 
0.981223 0.020578 0.0 
0.975717 0.0287777 0.0 
0.964851 0.00375656 0.0 
0.893714 0.0128252 0.0 
0.959156 -0.0180529 0.0 
0.11228 0.000953581 0.0 
0.968885 -0.000406158 0.0 
1.06141 0.0170538 0.0 
0.876469 0.168136 0.0 
0.99654 0.0118047 0.0 
1.06718 0.0279665 0.0 
1.05848 0.0952656 0.0 
1.10266 -0.0713501 0.0 
1.0975 0.10549 0.0 
0.97668 -0.00314087 0.0 
0.877115 0.183109 0.0 
0.996722 0.014176 0.0 
0.997008 0.0108909 0.0 
0.889955 -0.0413258 0.0 
0.978927 0.02554 0.0 
1.16419 -0.227296 0.0 
0.645496 0.0176084 0.0 
0.942274 0.0414364 0.0 
1.0175 0.30303 0.0 
0.907962 0.353489 0.0 
0.839368 0.132146 0.0 
1.1611 0.0771998 0.0 
0.153797 0.133998 0.0 
1.0181 0.290037 0.0 
1.0662 0.266411 0.0 
1.04009 -0.0052437 0.0 
0.939145 0.0941862 0.0 
0.0463585 0.00664566 0.0 
1.1765 0.148673 0.0 
0.978063 0.0316246 0.0 
0.91033 0.122069 0.0 
1.12664 0.220613 0.0 
0.851722 0.12432 0.0 
-0.0429253 -0.0179049 0.0 
0.979144 0.0297522 0.0 
0.925419 0.0735531 0.0 
0.743699 0.140787 0.0 
0.979968 0.0264954 0.0 
0.912114 0.150194 0.0 
0.995959 0.0122727 0.0 
0.903452 0.101455 0.0 
0.979464 0.0276662 0.0 
0.854256 0.0555861 0.0 
0.831304 0.0224161 0.0 
0.904581 0.164279 0.0 
0.998826 0.0111126 0.0 
0.969096 -0.00487574 0.0 
0.980421 0.024838 0.0 
0.999221 0.0172406 0.0 
0.962963 -0.00490649 0.0 
0.961947 -0.00857703 0.0 
0.966406 -0.00436327 0.0 
0.938447 -0.0416312 0.0 
0.926181 0.0580204 0.0 
0.926811 0.0880496 0.0 
1.0424 -0.000670352 0.0 
0.990005 0.0316977 0.0 
1.06599 0.0290644 0.0 
0.999323 0.0141504 0.0 
1.07936 -0.00678213 0.0 
1.00597 0.0797004 0.0 
0.949952 0.0131221 0.0 
0.977191 0.0268515 0.0 
1.05029 -0.161285 0.0 
1.10121 0.243745 0.0 
1.12478 0.232011 0.0 
0.933513 -0.0323626 0.0 
0.999213 0.013686 0.0 
0.951442 0.0107745 0.0 
0.996465 0.0133369 0.0 
0.979685 0.00518377 0.0 
1.05675 0.0102341 0.0 
1.04913 -0.171996 0.0 