<VTKFile type="UnstructuredGrid" version="0.1" byte_order="LittleEndian">
  <UnstructuredGrid>
    <Piece NumberOfPoints="9712" NumberOfCells="19403">
      <Points>
        <DataArray type = "Float64" NumberOfComponents="3" format="ascii">
-5 -7 0.0 
15.5 -7 0.0 
15.5 7 0.0 
-5 7 0.0 
-1.6546 1.77742 0.0 
-2.13867 1.86504 0.0 
-1.83467 1.79143 0.0 
1.47969 -2.21179 0.0 
1.36003 -2.38618 0.0 
1.4346 -2.45048 0.0 
-2.04214 1.94165 0.0 
-0.20425 1.17338 0.0 
-2.07648 1.81911 0.0 
-2.00827 1.89081 0.0 
-2.05492 1.98872 0.0 
0.192693 0.536219 0.0 
0.154285 1.75648 0.0 
1.1379 -1.62057 0.0 
-2.11226 1.96977 0.0 
-1.74119 1.75327 0.0 
1.14499 -1.58184 0.0 
-1.94373 2.37229 0.0 
1.50619 -0.664239 0.0 
1.99658 -1.76705 0.0 
1.7229 -1.18344 0.0 
-1.97759 2.52091 0.0 
-0.768046 0.387136 0.0 
1.32657 -1.43969 0.0 
1.90142 0.24821 0.0 
-0.93264 1.51038 0.0 
1.09557 0.967223 0.0 
0.627111 0.757352 0.0 
-2.05707 2.31394 0.0 
1.34027 -2.45136 0.0 
-0.725097 0.397516 0.0 
-0.666094 2.30428 0.0 
-0.73829 -0.279965 0.0 
1.73336 -1.08822 0.0 
1.88466 -1.24421 0.0 
1.50539 -1.23752 0.0 
1.65978 -1.30759 0.0 
-0.0409718 0.542603 0.0 
1.6005 -1.1227 0.0 
1.78439 -0.941488 0.0 
1.86015 -1.54236 0.0 
1.49308 -1.40058 0.0 
2.34892 -1.47149 0.0 
2.13832 -1.3246 0.0 
1.73061 0.751302 0.0 
-0.580328 0.526903 0.0 
1.51013 -2.1595 0.0 
-1.65424 3.45779 0.0 
-1.51397 2.46352 0.0 
1.42773 -2.17867 0.0 
0.304353 0.497878 0.0 
2.24628 0.228293 0.0 
1.51258 -2.27933 0.0 
-1.60346 3.44299 0.0 
-1.71408 2.36227 0.0 
2.17421 0.530405 0.0 
2.42 0.316451 0.0 
-1.63642 3.31911 0.0 
2.53942 -0.995036 0.0 
0.750003 0.810439 0.0 
2.04736 0.40918 0.0 
1.19615 -1.50641 0.0 
2.13474 0.494063 0.0 
0.547924 0.306722 0.0 
-0.2059 0.361394 0.0 
2.2127 0.547693 0.0 
1.41442 -0.597105 0.0 
1.52233 -1.46252 0.0 
-1.84114 2.53924 0.0 
-5 -2.53894 0.0 
2.32127 0.371156 0.0 
-1.69186 3.33379 0.0 
-0.964779 0.566136 0.0 
-1.81311 2.48387 0.0 
-1.78557 3.38304 0.0 
1.48278 0.914136 0.0 
2.51531 -1.89689 0.0 
1.20982 -0.330514 0.0 
0.408434 0.319657 0.0 
0.95023 0.60993 0.0 
-0.752349 0.440796 0.0 
-0.998248 0.564019 0.0 
-1.73165 3.36299 0.0 
1.24353 -1.49063 0.0 
0.942095 0.817189 0.0 
-1.77816 2.47096 0.0 
2.48183 -1.95479 0.0 
1.33574 -1.77854 0.0 
0.823335 1.12085 0.0 
-0.36308 0.598468 0.0 
0.745466 0.783414 0.0 
-1.88344 2.8521 0.0 
-1.79794 3.52221 0.0 
3.0087 0.272815 0.0 
-1.81486 2.66014 0.0 
0.375911 -0.403668 0.0 
-0.68323 0.487288 0.0 
-0.34187 -0.274923 0.0 
-0.293875 -0.201368 0.0 
1.61018 -1.767 0.0 
-0.448275 -0.347267 0.0 
-1.08687 0.352015 0.0 
1.29257 -1.76345 0.0 
1.67658 -1.49551 0.0 
1.19193 0.533009 0.0 
1.21582 -1.91654 0.0 
-0.36438 -0.346225 0.0 
-0.92534 0.330346 0.0 
2.3836 0.287756 0.0 
1.68841 0.639887 0.0 
1.59001 -1.89458 0.0 
1.14818 -1.92143 0.0 
1.28996 -2.19426 0.0 
1.37603 -1.8763 0.0 
1.23834 -2.09141 0.0 
1.11702 -2.06287 0.0 
0.691829 0.463808 0.0 
1.46523 -2.03459 0.0 
-0.123547 0.424486 0.0 
-1.3311 2.12174 0.0 
1.08169 -1.90074 0.0 
1.87975 -2.15971 0.0 
1.10131 -1.78593 0.0 
1.13722 0.534683 0.0 
1.42465 -1.59031 0.0 
-1.45435 2.47344 0.0 
1.41998 -1.98207 0.0 
0.463917 1.8787 0.0 
-1.72896 2.89571 0.0 
1.12419 -1.84975 0.0 
1.59054 -1.20634 0.0 
0.46124 0.621002 0.0 
0.806438 -1.00204 0.0 
2.1804 0.349761 0.0 
2.21142 -1.6418 0.0 
1.10152 -0.274558 0.0 
2.23388 0.387302 0.0 
0.137769 0.567007 0.0 
1.88736 0.267391 0.0 
1.26821 -1.94267 0.0 
0.21033 -0.605707 0.0 
2.61094 -1.50046 0.0 
0.819837 0.743337 0.0 
-1.4303 2.07799 0.0 
1.82013 0.322126 0.0 
-1.47649 2.2099 0.0 
1.15745 -0.274223 0.0 
-1.81198 2.24994 0.0 
2.34337 -1.67775 0.0 
-1.13329 1.37877 0.0 
-0.828215 1.05292 0.0 
2.46752 -1.53452 0.0 
-1.69915 2.18529 0.0 
-0.404416 -0.286271 0.0 
-1.23501 1.31766 0.0 
2.11757 -1.50659 0.0 
-1.08535 1.28274 0.0 
2.58548 -1.70783 0.0 
0.24729 -0.572345 0.0 
-1.66963 2.25319 0.0 
1.58322 -1.62308 0.0 
-0.367923 -0.306026 0.0 
0.391521 1.44485 0.0 
1.88977 -2.46319 0.0 
1.5943 -1.53613 0.0 
-0.357143 -0.23651 0.0 
0.82621 0.80563 0.0 
-1.59261 2.31884 0.0 
-0.47244 -0.307516 0.0 
-0.40334 -0.326688 0.0 
-2.00063 2.11543 0.0 
1.55514 -1.95078 0.0 
-1.40431 2.26352 0.0 
-0.0265928 0.573714 0.0 
1.17093 1.10579 0.0 
-1.77907 2.22111 0.0 
0.682788 0.329642 0.0 
-0.54475 2.15572 0.0 
-0.288592 0.289433 0.0 
-1.43199 2.16349 0.0 
-1.45029 2.25134 0.0 
1.5535 -1.79992 0.0 
-1.06406 1.08381 0.0 
1.72954 1.44966 0.0 
0.582806 0.515814 0.0 
0.582876 -0.679913 0.0 
1.32351 -0.355916 0.0 
-0.47505 0.577092 0.0 
-0.371167 0.227715 0.0 
1.52235 -1.8529 0.0 
-0.429822 -0.244811 0.0 
-0.53237 -0.24648 0.0 
-0.393983 -0.210364 0.0 
0.652895 0.317361 0.0 
1.55812 -1.70765 0.0 
1.63021 0.325622 0.0 
0.442731 0.358729 0.0 
1.22925 -1.85192 0.0 
1.43517 -1.79082 0.0 
1.39317 -1.6984 0.0 
1.62965 0.295952 0.0 
0.905462 0.793465 0.0 
1.04036 -1.64811 0.0 
2.1131 -1.72466 0.0 
-0.743911 0.369492 0.0 
1.14427 -1.99314 0.0 
1.26033 -2.0209 0.0 
-1.70955 2.07308 0.0 
0.910023 -1.62976 0.0 
-0.313059 -0.0954838 0.0 
-1.77334 2.3988 0.0 
-0.311958 -0.24042 0.0 
2.53315 0.325608 0.0 
-0.273728 -0.226719 0.0 
-0.646401 0.379627 0.0 
1.52426 0.616074 0.0 
2.21703 -1.79499 0.0 
2.71108 0.312216 0.0 
0.759924 1.093 0.0 
-1.69271 2.12368 0.0 
0.255794 0.540969 0.0 
0.0534699 0.562158 0.0 
-1.5679 2.22408 0.0 
-1.66906 2.45165 0.0 
-1.51895 2.09449 0.0 
2.16948 0.408238 0.0 
-0.818806 0.680638 0.0 
-0.826868 0.642087 0.0 
0.519855 0.276992 0.0 
-0.716682 1.18602 0.0 
-0.649974 -0.148775 0.0 
0.457368 0.256619 0.0 
0.517407 0.248194 0.0 
0.327129 0.39802 0.0 
0.533249 -0.878832 0.0 
-0.870735 0.634904 0.0 
1.19219 1.07557 0.0 
2.35922 0.366028 0.0 
-1.66911 3.66723 0.0 
-0.857603 1.54934 0.0 
-0.379189 2.30131 0.0 
-0.941007 1.36523 0.0 
-1.58662 2.49682 0.0 
-0.545297 0.352587 0.0 
0.327944 -0.744683 0.0 
-0.312756 0.524741 0.0 
-0.107843 0.506233 0.0 
2.13378 -2.36584 0.0 
1.52689 0.686953 0.0 
-0.119983 0.327909 0.0 
1.02161 -1.53072 0.0 
1.51507 0.39695 0.0 
-0.674484 1.02605 0.0 
-0.564724 -0.148435 0.0 
0.409388 0.290913 0.0 
0.252349 0.30842 0.0 
-1.09282 1.45998 0.0 
1.45674 -1.54484 0.0 
-0.266777 0.782169 0.0 
0.91327 -0.874389 0.0 
1.01208 1.13309 0.0 
-0.897136 1.35063 0.0 
-0.846484 0.489353 0.0 
1.47563 0.663768 0.0 
-1.22282 2.05021 0.0 
0.348906 0.416714 0.0 
1.41913 0.964648 0.0 
0.933289 -0.839038 0.0 
-1.85066 1.40221 0.0 
0.142477 1.99435 0.0 
-0.717809 0.341194 0.0 
-2.21177 1.41584 0.0 
0.396571 0.350929 0.0 
1.25171 -1.60721 0.0 
0.736798 0.393502 0.0 
-0.661427 0.19031 0.0 
2.18751 -2.32769 0.0 
-1.00908 1.6747 0.0 
2.21416 -2.07269 0.0 
-0.779194 0.642011 0.0 
-1.02312 1.3939 0.0 
2.08809 -2.24876 0.0 
-5 -4.48794 0.0 
1.61792 -1.46215 0.0 
-0.974627 1.38947 0.0 
1.81166 -2.48446 0.0 
-1.03635 1.47474 0.0 
0.869004 -1.74424 0.0 
0.956579 -1.78598 0.0 
1.07495 0.540689 0.0 
-1.08005 1.37763 0.0 
0.914755 -0.803058 0.0 
0.611759 -0.305322 0.0 
1.70043 -1.41356 0.0 
0.75708 -0.631542 0.0 
1.21215 1.01979 0.0 
-0.586902 0.440014 0.0 
1.9251 -2.56336 0.0 
-1.58261 1.91091 0.0 
-0.746541 1.26087 0.0 
-1.49915 1.13657 0.0 
-1.46675 0.971536 0.0 
-1.05881 0.930935 0.0 
0.71826 0.415078 0.0 
-0.701697 0.526982 0.0 
-1.56194 2.05157 0.0 
1.15988 0.991244 0.0 
1.38676 0.949615 0.0 
-1.61697 2.02689 0.0 
1.13748 -0.357331 0.0 
-1.8456 2.04561 0.0 
0.253686 -0.756334 0.0 
-1.53603 1.86509 0.0 
-1.43465 0.924137 0.0 
-1.00273 1.27416 0.0 
-1.03063 1.5132 0.0 
-1.32483 1.94769 0.0 
-0.965552 1.61445 0.0 
-0.239859 -0.245939 0.0 
-5 3.01776 0.0 
-5 -0.248741 0.0 
0.517491 1.87079 0.0 
-1.18776 1.8875 0.0 
2.27458 0.36201 0.0 
1.9794 0.331487 0.0 
0.503086 0.510306 0.0 
1.26387 -0.370702 0.0 
1.24483 0.550197 0.0 
1.12871 0.979556 0.0 
-1.48659 1.83259 0.0 
1.0672 0.958366 0.0 
-1.16856 1.61214 0.0 
-0.218637 -0.230696 0.0 
-5 1.81431 0.0 
1.37014 1.04658 0.0 
0.0950623 0.557621 0.0 
-1.23613 1.67303 0.0 
0.953731 -0.709843 0.0 
2.07568 -1.85385 0.0 
2.10836 -1.82014 0.0 
-0.994952 1.33552 0.0 
-1.86986 1.52312 0.0 
0.515812 0.447542 0.0 
0.842446 0.992035 0.0 
-1.42353 1.8223 0.0 
2.091 0.354014 0.0 
-0.937663 0.401428 0.0 
-1.69305 1.41997 0.0 
-1.82465 1.55127 0.0 
2.15192 0.384657 0.0 
-1.17972 1.37998 0.0 
-0.718866 -0.0130647 0.0 
-0.927867 0.290435 0.0 
1.56509 0.300406 0.0 
-5 -3.04052 0.0 
9.98027 -7 0.0 
0.176009 0.694641 0.0 
0.597997 -0.559941 0.0 
-0.546583 0.4849 0.0 
0.602022 -0.657834 0.0 
2.17737 0.379672 0.0 
1.89809 0.287017 0.0 
-1.58883 1.35796 0.0 
-1.2284 1.37063 0.0 
-1.43937 1.35342 0.0 
-1.59664 1.47263 0.0 
0.577431 -0.368705 0.0 
1.5263 -1.51093 0.0 
0.479666 0.796509 0.0 
0.894995 1.01463 0.0 
2.22312 0.363016 0.0 
-0.320562 0.726481 0.0 
-1.30188 2.41386 0.0 
0.43802 0.434693 0.0 
-0.761697 0.762024 0.0 
1.45688 -1.49591 0.0 
-0.65072 0.676835 0.0 
1.6097 -1.41509 0.0 
2.25768 0.399237 0.0 
1.85518 0.299709 0.0 
2.14618 0.290757 0.0 
2.25222 0.371677 0.0 
-1.93063 2.91367 0.0 
1.52717 0.319618 0.0 
1.67964 -1.62237 0.0 
1.35962 -0.439169 0.0 
1.63007 -1.54335 0.0 
-5 -0.764504 0.0 
-1.61377 2.62271 0.0 
1.73865 -1.57725 0.0 
-0.908306 1.23669 0.0 
1.60766 0.330292 0.0 
1.82509 -1.63054 0.0 
1.90521 0.312457 0.0 
1.98719 -1.6488 0.0 
-0.528791 0.39225 0.0 
1.94978 -2.39003 0.0 
-0.472559 0.718465 0.0 
-1.28058 2.26572 0.0 
0.881581 -0.556282 0.0 
2.26369 0.42542 0.0 
0.917309 -1.69962 0.0 
0.853954 -1.60945 0.0 
1.30086 -0.404316 0.0 
1.99565 -2.46852 0.0 
1.49445 -1.47573 0.0 
1.68285 0.863315 0.0 
2.03074 -2.37549 0.0 
2.52279 -0.506167 0.0 
2.56049 -1.76899 0.0 
-1.52889 2.56597 0.0 
2.81136 -0.570221 0.0 
1.3688 -1.46095 0.0 
1.29524 -0.373946 0.0 
-0.350504 0.671928 0.0 
-0.590282 0.564035 0.0 
-0.054366 2.16706 0.0 
1.50819 1.22548 0.0 
-0.548222 0.453941 0.0 
2.19936 -2.5207 0.0 
12.2704 -7 0.0 
1.6811 -1.36761 0.0 
-0.449261 0.559535 0.0 
0.537017 -0.527614 0.0 
-0.00733391 0.553304 0.0 
0.494109 -0.356396 0.0 
-0.7939 0.0827441 0.0 
0.39888 0.467333 0.0 
-1.04288 1.34095 0.0 
0.605019 1.02824 0.0 
0.847559 0.374727 0.0 
1.00336 0.618307 0.0 
2.1955 0.399186 0.0 
0.656973 0.401158 0.0 
-0.998431 2.73564 0.0 
[...]
<PointData>
  <DataArray type = "Float64" Name="VitesseP1" NumberOfComponents="3" format="ascii">
1 0 0.0 
1.07998 0 0.0 
1.02593 0 0.0 
1 0 0.0 
0.994584 0.0157931 0.0 
0.996895 0.0111242 0.0 
0.995469 0.0136008 0.0 
1.03972 -0.00443248 0.0 
1.04119 -0.006537 0.0 
1.04576 -0.00608897 0.0 
0.99774 0.0120538 0.0 
0.986296 0.0724776 0.0 
0.996587 0.0114548 0.0 
0.996799 0.0122444 0.0 
0.998899 0.0120572 0.0 
0.992375 0.217664 0.0 
1.01911 0.0538168 0.0 
1.05066 -0.0255471 0.0 
0.998825 0.0114774 0.0 
0.995001 0.0145265 0.0 
1.05503 -0.0264296 0.0 
0.998828 0.0133897 0.0 
1.15967 -0.0239652 0.0 
1.0478 0.0119036 0.0 
1.06214 -0.000818422 0.0 
0.998791 0.0129729 0.0 
0.944495 0.00867632 0.0 
1.0621 -0.0213737 0.0 
0.0627711 0.00425132 0.0 
0.988702 0.031388 0.0 
1.14125 0.065782 0.0 
1.10976 0.141031 0.0 
0.998824 0.0123948 0.0 
1.03193 -0.0193213 0.0 
0.941342 0.012257 0.0 
1.0054 0.030487 0.0 
0.936974 -0.0512889 0.0 
1.08316 -0.00035581 0.0 
1.05477 0.00973859 0.0 
1.05322 -0.0146508 0.0 
1.05589 -0.00421416 0.0 
0.926922 0.151334 0.0 
1.07389 -0.0098779 0.0 
1.12507 0.00355488 0.0 
1.06676 0.00727384 0.0 
1.06248 -0.0131008 0.0 
1.05995 0.0340676 0.0 
1.05507 0.0248842 0.0 
1.19574 0.0218455 0.0 
0.939522 0.0355557 0.0 
1.0389 -0.00421654 0.0 
1.00248 0.0123649 0.0 
0.999774 0.017546 0.0 
1.0384 -0.00594526 0.0 
1.03788 0.242573 0.0 
0.0493433 0.0146573 0.0 
1.0408 -0.00347875 0.0 
1.0027 0.0127616 0.0 
0.999054 0.0156464 0.0 
1.1656 -0.0101184 0.0 
0.20281 -0.00664233 0.0 
1.00235 0.0130197 0.0 
1.09051 0.061753 0.0 
1.12247 0.11931 0.0 
0.590518 -0.00755723 0.0 
1.06003 -0.026285 0.0 
1.08322 -0.00882038 0.0 
0.558315 0.134575 0.0 
0.862785 0.0852911 0.0 
1.18296 -0.0138788 0.0 
1.20128 -0.0357069 0.0 
1.06572 -0.0108079 0.0 
0.999002 0.0141118 0.0 
1 0 0.0 
0.346417 -0.0200346 0.0 
1.00213 0.012602 0.0 
0.968098 0.010577 0.0 
0.999025 0.0144671 0.0 
1.00175 0.0117924 0.0 
1.17094 0.0318631 0.0 
1.03662 0.0215384 0.0 
0.757427 -0.0398694 0.0 
0.949516 0.262709 0.0 
1.1732 0.112874 0.0 
0.946136 0.014204 0.0 
0.969911 0.00887764 0.0 
1.00204 0.0122174 0.0 
1.06128 -0.0244836 0.0 
1.14292 0.0955106 0.0 
0.99909 0.0148155 0.0 
1.04278 0.0259714 0.0 
1.04432 -0.0142857 0.0 
1.09571 0.0783912 0.0 
0.935492 0.0699084 0.0 
1.12486 0.123437 0.0 
0.999829 0.0129074 0.0 
1.00222 0.0110273 0.0 
0.0816468 -0.156624 0.0 
0.999189 0.0140459 0.0 
1.19192 -0.234143 0.0 
0.94404 0.0229585 0.0 
0.918884 -0.0883494 0.0 
0.915774 -0.0744883 0.0 
1.04836 -0.00379539 0.0 
0.924414 -0.0782417 0.0 
0.967115 -0.00815708 0.0 
1.04417 -0.0162017 0.0 
1.06729 -0.00231646 0.0 
1.19683 0.079676 0.0 
1.03809 -0.0158903 0.0 
0.920143 -0.0885818 0.0 
0.954797 -0.00365287 0.0 
0.135287 0.00377696 0.0 
1.19996 0.0278924 0.0 
1.04377 -0.00376003 0.0 
1.03661 -0.0177161 0.0 
1.03642 -0.0087021 0.0 
1.0421 -0.0113173 0.0 
1.03461 -0.0121182 0.0 
1.03214 -0.0167981 0.0 
1.16449 0.182858 0.0 
1.0381 -0.00649779 0.0 
0.877331 0.125798 0.0 
0.999048 0.0210366 0.0 
1.03577 -0.020154 0.0 
1.03867 0.0050989 0.0 
1.03921 -0.0223968 0.0 
1.19629 0.0874952 0.0 
1.0609 -0.013967 0.0 
1.00002 0.0181721 0.0 
1.03859 -0.00848544 0.0 
1.02836 0.0472308 0.0 
1.00069 0.0139486 0.0 
1.03806 -0.020133 0.0 
1.05754 -0.00950046 0.0 
1.08761 0.18825 0.0 
1.06828 -0.0724479 0.0 
0.218716 -0.00694185 0.0 
1.05402 0.0226961 0.0 
0.45857 -0.0386374 0.0 
0.413983 -0.0201481 0.0 
0.977742 0.196124 0.0 
0.0670871 0.00203054 0.0 
1.0379 -0.0137973 0.0 
1.0308 -0.160241 0.0 
1.04721 0.0489012 0.0 
1.1391 0.119004 0.0 
0.998757 0.0196409 0.0 
0.0827272 0.00241232 0.0 
0.998921 0.018716 0.0 
0.411837 -0.0164142 0.0 
0.998741 0.0147327 0.0 
1.04658 0.0270297 0.0 
0.985131 0.0246131 0.0 
0.973403 0.0343753 0.0 
1.05342 0.038068 0.0 
0.998571 0.0159834 0.0 
0.922859 -0.0794906 0.0 
0.984145 0.0210256 0.0 
1.06486 0.0208898 0.0 
0.981562 0.0254617 0.0 
1.03317 0.0329329 0.0 
1.04017 -0.17073 0.0 
0.998854 0.0162759 0.0 
1.05923 -0.00611333 0.0 
0.920272 -0.085859 0.0 
1.0335 0.0694226 0.0 
1.04439 -0.000693146 0.0 
1.0663 -0.00633743 0.0 
0.916561 -0.0816792 0.0 
1.13235 0.110926 0.0 
0.999165 0.0170611 0.0 
0.927721 -0.0726834 0.0 
0.922282 -0.0825537 0.0 
0.998611 0.0127877 0.0 
1.04105 -0.00459854 0.0 
0.999416 0.0195468 0.0 
0.938987 0.151269 0.0 
1.12865 0.0474632 0.0 
0.998683 0.0150905 0.0 
0.635998 0.110438 0.0 
1.00602 0.0346075 0.0 
0.863351 0.0452909 0.0 
0.99888 0.019435 0.0 
0.999222 0.0189636 0.0 
1.04639 -0.00578835 0.0 
0.973928 0.0239409 0.0 
1.06954 -0.037343 0.0 
1.14165 0.198626 0.0 
1.10889 -0.128282 0.0 
0.876102 -0.0294306 0.0 
0.938196 0.051777 0.0 
0.87504 0.0162873 0.0 
1.04456 -0.00648877 0.0 
0.92413 -0.073063 0.0 
0.933232 -0.0625423 0.0 
0.918894 -0.0742205 0.0 
0.583139 0.110756 0.0 
1.05165 -0.00645837 0.0 
0.10788 0.0147415 0.0 
1.03785 0.26449 0.0 
1.04026 -0.0167086 0.0 
1.04546 -0.010407 0.0 
1.05028 -0.0135275 0.0 
0.0869899 0.0200406 0.0 
1.14224 0.102268 0.0 
1.04536 -0.0284171 0.0 
1.04873 0.0170542 0.0 
0.941387 0.00851061 0.0 
1.03375 -0.0166899 0.0 
1.03536 -0.0126474 0.0 
0.998713 0.0158631 0.0 
1.04239 -0.0335362 0.0 
0.898778 -0.0655462 0.0 
0.99902 0.0149831 0.0 
0.909809 -0.0857014 0.0 
0.268389 -0.0190786 0.0 
0.887969 -0.0838919 0.0 
0.932589 0.0160111 0.0 
1.19945 0.0409141 0.0 
1.0441 0.0200066 0.0 
0.337117 -0.044686 0.0 
1.09532 0.0860474 0.0 
0.998526 0.0160668 0.0 
1.01911 0.222523 0.0 
0.951563 0.176952 0.0 
0.998854 0.0175209 0.0 
0.999296 0.0159285 0.0 
0.998725 0.0183411 0.0 
0.565759 -0.0148173 0.0 
0.967676 0.0250351 0.0 
0.965372 0.0225432 0.0 
0.415006 0.135755 0.0 
0.976424 0.0408245 0.0 
0.940294 -0.0443939 0.0 
0.301959 0.101556 0.0 
0.375598 0.184441 0.0 
1.06355 0.296349 0.0 
1.06912 -0.102263 0.0 
0.967134 0.0194677 0.0 
1.13629 0.0476043 0.0 
0.339851 -0.0182714 0.0 
1.00056 0.0116888 0.0 
0.9903 0.0337157 0.0 
1.00955 0.0351051 0.0 
0.983724 0.0310601 0.0 
0.999602 0.01666 0.0 
0.918717 0.02125 0.0 
1.05869 -0.131034 0.0 
0.918974 0.0754967 0.0 
0.908736 0.131743 0.0 
1.04315 0.0139809 0.0 
1.19047 0.0383815 0.0 
0.82991 0.116527 0.0 
1.05477 -0.0330569 0.0 
0.582217 0.0196242 0.0 
0.975733 0.0434312 0.0 
0.932691 -0.050295 0.0 
0.702686 0.19452 0.0 
0.899578 0.338748 0.0 
0.987233 0.0262767 0.0 
1.06441 -0.0130118 0.0 
0.967251 0.0860554 0.0 
1.11282 -0.0756398 0.0 
1.10966 0.0609492 0.0 
0.983099 0.0327066 0.0 
0.956246 0.0120304 0.0 
1.19139 0.0437199 0.0 
0.999144 0.0230507 0.0 
1.07778 0.283334 0.0 
1.16406 0.0339964 0.0 
1.12325 -0.0766074 0.0 
0.994065 0.0101398 0.0 
1.01761 0.0459587 0.0 
0.937399 0.00740008 0.0 
0.997216 0.00846882 0.0 
1.01887 0.283847 0.0 
1.05534 -0.0212096 0.0 
1.00259 0.150584 0.0 
0.925127 -0.00665741 0.0 
1.03489 0.0306497 0.0 
0.992768 0.0287614 0.0 
1.03575 0.0165876 0.0 
0.962788 0.0257238 0.0 
0.984958 0.0282684 0.0 
1.03458 0.00802129 0.0 
1 0 0.0 
1.06665 -0.00563273 0.0 
0.984676 0.0299138 0.0 
1.04303 -0.000405285 0.0 
0.987521 0.0280606 0.0 
1.0337 -0.0307207 0.0 
1.0354 -0.0269627 0.0 
1.19346 0.0969623 0.0 
0.984757 0.0262985 0.0 
1.12891 -0.0812158 0.0 
0.91442 -0.146214 0.0 
1.06504 -0.00136709 0.0 
1.12767 -0.113902 0.0 
1.1451 0.0497909 0.0 
0.93132 0.0272398 0.0 
1.03704 0.00253881 0.0 
0.995924 0.0172524 0.0 
0.979674 0.0391989 0.0 
0.984033 0.0111472 0.0 
0.995516 0.0104103 0.0 
0.990103 0.0212634 0.0 
1.0912 0.1672 0.0 
0.948577 0.0245025 0.0 
0.9987 0.0177138 0.0 
1.14403 0.0572534 0.0 
1.16294 0.0377629 0.0 
0.998447 0.0169582 0.0 
0.934323 -0.0562353 0.0 
0.999077 0.0142484 0.0 
1.04287 -0.127859 0.0 
0.995018 0.0178463 0.0 
1.00025 0.0110644 0.0 
0.980692 0.0283427 0.0 
0.988772 0.0283046 0.0 
0.996557 0.0214379 0.0 
0.99184 0.0301466 0.0 
0.882311 -0.105685 0.0 
1 0 0.0 
1 0 0.0 
1.0302 0.0465575 0.0 
0.995219 0.0240881 0.0 
0.291538 -0.0163645 0.0 
0.104064 0.00315086 0.0 
1.1172 0.216069 0.0 
0.963483 -0.0439507 0.0 
1.20057 0.0730053 0.0 
1.14273 0.0613737 0.0 
0.994446 0.0185543 0.0 
1.13982 0.0694859 0.0 
0.99178 0.0246182 0.0 
0.948521 -0.164095 0.0 
1 0 0.0 
1.15438 0.0322268 0.0 
0.96188 0.189527 0.0 
0.99273 0.02313 0.0 
1.14356 -0.0841111 0.0 
1.04376 0.0140891 0.0 
1.04452 0.0157243 0.0 
0.982806 0.0290079 0.0 
0.995337 0.0113844 0.0 
1.12892 0.231371 0.0 
1.11752 0.0894958 0.0 
0.994194 0.0196071 0.0 
0.207106 -0.00835617 0.0 
0.958468 0.00113461 0.0 
0.992088 0.01218 0.0 
0.995264 0.0120961 0.0 
0.382638 -0.0130765 0.0 
0.985484 0.0232264 0.0 
0.948705 -0.0293075 0.0 
0.953582 -0.00686249 0.0 
0.0933769 -0.00749584 0.0 
1 0 0.0 
1.06362 0 0.0 
1.00793 0.165607 0.0 
1.11981 -0.145434 0.0 
0.932077 0.0357098 0.0 
1.11284 -0.12956 0.0 
0.353281 -0.0144397 0.0 
0.0712736 0.00262718 0.0 
0.989627 0.0129077 0.0 
0.985622 0.0217439 0.0 
0.987421 0.0160436 0.0 
0.991647 0.0143377 0.0 
1.10928 -0.172967 0.0 
1.06599 -0.0100011 0.0 
1.07971 0.146123 0.0 
1.12031 0.0823673 0.0 
0.282392 -0.0130331 0.0 
0.95679 0.0789431 0.0 
1.00054 0.020255 0.0 
1.11173 0.256406 0.0 
0.97233 0.0324418 0.0 
1.06523 -0.0138289 0.0 
0.959366 0.0377453 0.0 
1.06468 -0.00651869 0.0 
0.496877 -0.0223814 0.0 
0.0749494 0.00289143 0.0 
0.0724554 0.0136874 0.0 
0.330438 -0.0174695 0.0 
0.999788 0.0123473 0.0 
0.0754772 0.000698604 0.0 
1.05982 -0.00163784 0.0 
1.16304 -0.0409253 0.0 
1.06631 -0.00449957 0.0 
1 0 0.0 
0.99972 0.0159667 0.0 
1.06464 0.00113443 0.0 
0.97907 0.0319146 0.0 
0.101674 0.00818686 0.0 
1.0594 0.005222 0.0 
0.0812714 0.00227813 0.0 
1.05674 0.0125855 0.0 
0.92041 0.0279159 0.0 
1.03933 0.000960731 0.0 
0.957435 0.0581078 0.0 
0.999901 0.0212503 0.0 
1.19509 -0.108938 0.0 
0.696373 -0.0217242 0.0 
1.03773 -0.0307692 0.0 
1.04231 -0.0360369 0.0 
1.07203 -0.0430391 0.0 
1.05121 0.00974769 0.0 
1.06565 -0.0121463 0.0 
1.18451 0.0167334 0.0 
1.03873 0.0134282 0.0 
1.23888 0.0895607 0.0 
1.03459 0.0281526 0.0 
0.999926 0.017012 0.0 
1.1622 0.109214 0.0 
1.06332 -0.0189299 0.0 
0.976607 -0.0440451 0.0 
0.94786 0.0739201 0.0 
0.944296 0.0372153 0.0 
1.01419 0.0421764 0.0 
1.13072 -0.00195191 0.0 
0.928978 0.0325652 0.0 
1.00997 -0.00443117 0.0 
1.05977 0 0.0 
1.06175 -0.00263105 0.0 
0.933924 0.0542578 0.0 
1.13946 -0.163061 0.0 
0.935791 0.16023 0.0 
1.10368 -0.194537 0.0 
0.952756 -0.0200608 0.0 
1.08798 0.250281 0.0 
0.983277 0.0273171 0.0 
1.08703 0.103751 0.0 
0.793763 0.100817 0.0 
1.17571 0.103775 0.0 
0.495233 -0.0175713 0.0 
1.07754 0.185517 0.0 
1.00404 0.0212928 0.0 
1.05634 0.0153347 0.0 
1.04225 0.00855921 0.0 
1.04883 -0.000813718 0.0 
1.04689 0.000227362 0.0 
0.108796 0.00651507 0.0 
1.04093 0.00196614 0.0 
0.0279391 0.0197851 0.0 
1.08334 -0.043208 0.0 
1.00406 0.0350455 0.0 
1.04435 0.00921375 0.0 
1 0 0.0 
0.983265 0.0261549 0.0 
1.1939 0.0927442 0.0 
0.772656 -0.0433227 0.0 
0.999573 0.0154086 0.0 
0.991779 0.0388913 0.0 
1.05095 0.0101781 0.0 
1.05541 0.00544229 0.0 
0.940019 0.188874 0.0 
0.783571 0.130184 0.0 
1.00429 0.018328 0.0 
1.14851 0.131984 0.0 
1.00008 0.24303 0.0 
0.999082 0.0120407 0.0 
0.986098 0.0290126 0.0 
1.05246 0.00132378 0.0 
0.937992 0.124508 0.0 
0.232792 0.0107348 0.0 
1.05147 0.00343043 0.0 
0.174691 0.0993655 0.0 
1.05172 -0.000745726 0.0 
1.0408 -0.0199361 0.0 
1.0158 0.0473542 0.0 
1.13209 -0.0495874 0.0 
1.04803 0.00234156 0.0 
0.95708 -0.00625845 0.0 
0.366393 0.0120044 0.0 
1.06218 -0.0223787 0.0 
0.946644 -0.00146158 0.0 
0.999776 0.015103 0.0 
1.0597 -0.0272268 0.0 
0.9419 0.0656374 0.0 
1.19646 -0.0434611 0.0 
0.329278 -0.0193956 0.0 
0.617247 -0.0264027 0.0 
0.941171 -0.00463775 0.0 
0.964811 0.272172 0.0 
0.252297 0.0479648 0.0 
0.997202 0.315738 0.0 
0.969012 -0.014217 0.0 
1.07832 -0.0420267 0.0 
0.745608 -0.00834066 0.0 
0.358192 0.116401 0.0 
1.10123 0.0690136 0.0 
0.99869 0.0121433 0.0 
0.594991 -0.00864891 0.0 
0.212841 0.0319332 0.0 
0.914798 -0.0434148 0.0 
0.779035 -0.0308452 0.0 
1.02981 0.0446287 0.0 
0.998767 0.0117338 0.0 
1.02632 -0.0976696 0.0 
1.11843 -0.0324432 0.0 
1.17032 0.0212134 0.0 
0.0766024 0.00167291 0.0 
0.936481 -0.0575994 0.0 
1.03342 0.0396747 0.0 
1.06562 -0.00772273 0.0 
0.938173 -0.00902062 0.0 
0.113 -0.00274922 0.0 
0.998789 0.0126588 0.0 
1.16959 0.025654 0.0 
1.05848 -0.0265459 0.0 
0.963988 0.215894 0.0 
1.05047 0.0133737 0.0 
1.06686 0.000562432 0.0 
1.06679 0.00532419 0.0 
0.954614 0.0375072 0.0 
1.06029 -0.0243276 0.0 
0.998915 0.0138397 0.0 
0.952296 0.00701563 0.0 
1.14214 -0.031365 0.0 
1.05278 0.0209374 0.0 
0.989358 0.00729018 0.0 
0.953489 0.0152707 0.0 
0.998954 0.0140257 0.0 
1.05694 0.00576105 0.0 
1.04143 -0.00445638 0.0 
1.06034 -0.0216114 0.0 
0.990524 0.00893361 0.0 
1.02023 0.0445089 0.0 
0.998884 0.0132768 0.0 
1.04656 -0.0262579 0.0 
1.06343 0.0195078 0.0 
0.0632457 0.0141306 0.0 
0.0619546 0.00805519 0.0 
1.06665 0.015366 0.0 
0.905637 -0.0564574 0.0 
0.893563 -0.046724 0.0 
0.88354 0.119688 0.0 
0.999392 0.0139693 0.0 
0.99885 0.0139416 0.0 
0.962847 -0.0132348 0.0 
0.965034 -0.00201934 0.0 
1.03401 0.0244409 0.0 
0.963989 0.234771 0.0 
1.06726 0.15154 0.0 
1.029 -0.0446217 0.0 
0.0703519 0.00419654 0.0 
1.15821 0.0219799 0.0 
1.0835 0.138446 0.0 
0.998711 0.0134606 0.0 
1.01525 0.0344556 0.0 
1.10981 -0.00797761 0.0 
0.982901 0.0209019 0.0 
0.934591 0.0463949 0.0 
1.0322 -0.0287006 0.0 
0.973453 0.0373277 0.0 
0.941321 0.108922 0.0 
0.934265 0.0589103 0.0 
0.819749 -0.0404957 0.0 
0.962938 0.00706856 0.0 
0.793431 -0.0472386 0.0 
1.001 0.0181663 0.0 
1.03008 0.0430545 0.0 
0.953863 -0.0102402 0.0 
0.961617 -0.00106646 0.0 
0.922723 0.0341804 0.0 
1.10165 0.248632 0.0 
0.972397 0.00603508 0.0 
0.942915 0.291724 0.0 
0.945493 0.0327473 0.0 
0.97543 0.226278 0.0 
0.850419 0.28596 0.0 
0.995202 0.00750354 0.0 
1.00147 0 0.0 
0.998821 0.0121222 0.0 
0.977328 0.00150582 0.0 
0.89634 0.1536 0.0 
0.136339 0.00843111 0.0 
1.01057 0.0435373 0.0 
0.980828 0.00711197 0.0 
0.999403 0.0125181 0.0 
0.916045 -0.0718648 0.0 
0.916742 0.0329756 0.0 
1.19943 -0.0319074 0.0 
0.998704 0.012394 0.0 
0.985248 0.086022 0.0 
0.756252 -0.0811215 0.0 
1.03436 -0.0230486 0.0 
0.936325 0.0636398 0.0 
0.995289 0.0161983 0.0 
0.944524 0.0275091 0.0 
0.991071 0.0200288 0.0 
0.072094 0.00713696 0.0 
0.748329 -0.070189 0.0 
1.04066 -0.0042734 0.0 
1.14581 0.0871783 0.0 
1.1478 -0.0317786 0.0 
0.997708 0.0106868 0.0 
0.982212 0.0185724 0.0 
1.00544 0.201841 0.0 
1.11438 0.157085 0.0 
0.585346 0.0954754 0.0 
0.951325 0.189043 0.0 
0.98159 0.0189384 0.0 
0.349629 -0.0279023 0.0 
0.982581 0.0218592 0.0 
0.997301 0.0127393 0.0 
1.00034 0.0196195 0.0 
0.298091 -0.0223633 0.0 
0.254531 -0.0145531 0.0 
0.981765 0.0301091 0.0 
0.33962 0.0581467 0.0 
1.19253 0.088448 0.0 
1.00982 0.0430061 0.0 
0.980924 0.032367 0.0 
0.9997 0.0195228 0.0 
0.977993 0.0111936 0.0 
0.930425 0.0686915 0.0 
0.97668 0.0257076 0.0 
0.852284 0.285133 0.0 
0.501242 -0.0352799 0.0 
0.279142 -0.013805 0.0 
0.968273 0.0134758 0.0 
0.974871 0.0121003 0.0 
1.05459 0.204454 0.0 
0.354562 -0.0287559 0.0 
0.939961 0.0209734 0.0 
1.03547 -0.0379379 0.0 
0.98329 0.245718 0.0 
0.999244 0.013608 0.0 
0.922677 0.0818068 0.0 
0.972399 0.0309922 0.0 
0.930305 0.143267 0.0 
0.961184 0.156045 0.0 
1.00914 0.255097 0.0 
0.711169 -0.033328 0.0 
0.937517 -0.0523446 0.0 
1.11075 0.0613275 0.0 
0.470379 0.0936827 0.0 
0.926656 -0.0596687 0.0 
0.163286 0.000946579 0.0 
0.899244 -0.0128759 0.0 
0.750812 0.135918 0.0 
0.91538 -0.0664382 0.0 
0.922448 -0.0561596 0.0 
0.615732 0.165241 0.0 
1.04759 0.00727185 0.0 
0.941082 0.173354 0.0 
0.879854 -0.00492869 0.0 
0.928559 -0.0537388 0.0 
1.03832 -0.00640864 0.0 
0.341756 0.0415879 0.0 
1.03611 -0.0092011 0.0 
0.866258 0.00740065 0.0 
0.89843 0.217268 0.0 
1.04569 -0.00095828 0.0 
0.906957 -0.0881056 0.0 
0.922888 0.182727 0.0 
0.340001 -0.0295382 0.0 
1.1241 0.064598 0.0 
1.03593 0.169872 0.0 
0.831577 0.380866 0.0 
1.10227 0.164432 0.0 
1.06469 0.25966 0.0 
0.970144 -0.0413243 0.0 
0.723904 -0.096043 0.0 
0.977793 0.0333017 0.0 
0.525545 0.0619683 0.0 
0.918699 -0.0526577 0.0 
1.04234 0.0668583 0.0 
0.232397 -0.0106522 0.0 
1.04419 0.263507 0.0 
1.05517 0.0406885 0.0 
0.87918 0.105293 0.0 
1.00511 0.0218009 0.0 
0.892913 0.0669563 0.0 
0.188938 -0.00406715 0.0 
0.85347 0.0764165 0.0 
0.949528 0.0368576 0.0 
0.947394 0.00387186 0.0 
1.17286 -0.0372061 0.0 
0.763942 0.3354 0.0 
0.847831 0.0891348 0.0 
1.02818 0.0727747 0.0 
1.08216 -0.0948271 0.0 
0.921355 -0.0468909 0.0 
1.04043 0.271772 0.0 
0.964804 0.0168681 0.0 
0.995654 0.0402813 0.0 
0.910411 0.0770192 0.0 
0.924735 0.112634 0.0 
0.910814 0.0354227 0.0 
1.00918 0.0275366 0.0 
0.919972 0.105951 0.0 
0.917625 0.220827 0.0 
0.999171 0.0126992 0.0 
1.09182 -0.0701402 0.0 
0.356289 -0.0324967 0.0 
1.05439 0.250993 0.0 
0.966356 0.202978 0.0 
0.807304 0.151263 0.0 
0.827145 0.0382081 0.0 
0.886442 0.0298428 0.0 
1.04242 0.305136 0.0 
0.999564 0.0173644 0.0 
1.12483 0.139281 0.0 
1.03333 0.226281 0.0 
0.886711 -0.0483387 0.0 
0.923039 -0.00193003 0.0 
0.858569 0.158421 0.0 
0.911078 0.0206562 0.0 
0.885329 0.014855 0.0 
0.932586 -0.0460609 0.0 
0.934367 0.207222 0.0 
0.995657 0.0303545 0.0 
0.999553 0.0148742 0.0 
0.16024 -0.000637229 0.0 
0.142043 0.00184063 0.0 
0.913037 0.0277671 0.0 
0.527328 0.15375 0.0 
1.03696 -0.00789401 0.0 
0.921924 -0.0163797 0.0 
0.978026 -0.000981716 0.0 
0.902773 0.0764895 0.0 
0.842082 0.00672326 0.0 
1.08172 -0.066556 0.0 
0.955119 0.00797373 0.0 
0.975574 0.00910723 0.0 
1.0845 0.267561 0.0 
0.280171 -0.0171241 0.0 
0.930859 0.300229 0.0 
0.973044 0.00263609 0.0 
0.988828 0.054112 0.0 
1.06908 -0.229067 0.0 
0.969025 0.0046779 0.0 
0.96178 0.0125517 0.0 
0.997708 0.0132943 0.0 
1.03671 -0.00884705 0.0 
0.800604 0.108269 0.0 
0.904597 0.018395 0.0 
0.990957 0.00544022 0.0 
1.02865 -0.182468 0.0 
0.995167 0.0154754 0.0 
0.935588 0.024113 0.0 
0.812268 0.168156 0.0 
0.950061 -0.00849158 0.0 
0.998116 0.0101683 0.0 
0.938825 0.00471782 0.0 
0.189054 0.128576 0.0 
0.943934 -0.00839659 0.0 
1.0637 -0.00899768 0.0 
0.954174 0.288657 0.0 
0.104528 0.00391304 0.0 
1.10172 0.254819 0.0 
0.988049 0.0148885 0.0 
0.931485 -0.133662 0.0 
0.968913 0.00184221 0.0 
0.959689 0.0091407 0.0 
0.959931 0.00453957 0.0 
0.54439 0.134918 0.0 
0.961964 0.00185797 0.0 
0.95605 -0.0135752 0.0 
0.653113 0.184269 0.0 
1.03359 -0.0126511 0.0 
1.03346 0.0455007 0.0 
0.997638 0.26586 0.0 
0.981035 0.0208532 0.0 
0.975472 0.0290422 0.0 
0.964733 0.0039358 0.0 
0.893622 0.0129165 0.0 
0.958992 -0.0178748 0.0 
0.11818 0.000183961 0.0 
0.968769 -0.000224509 0.0 
1.05815 0.017583 0.0 
0.876431 0.167984 0.0 
0.996478 0.0120824 0.0 
1.06291 0.0274492 0.0 
1.05714 0.0947144 0.0 
1.1022 -0.0702169 0.0 
1.09623 0.104358 0.0 
0.976583 -0.00295038 0.0 
0.877094 0.182937 0.0 
0.996628 0.0144983 0.0 
0.996949 0.0111605 0.0 
0.890228 -0.0412143 0.0 
0.978709 0.0258153 0.0 
1.16426 -0.2267 0.0 
0.694732 0.00869345 0.0 
0.942149 0.0415405 0.0 
1.01776 0.302547 0.0 
0.908709 0.353215 0.0 
0.839322 0.132055 0.0 
1.15894 0.073592 0.0 
0.154267 0.134166 0.0 
1.01886 0.289504 0.0 
1.06699 0.265669 0.0 
1.03787 -0.00603478 0.0 
0.938996 0.0941469 0.0 
0.0519655 0.00583259 0.0 
1.1765 0.146215 0.0 
0.977807 0.0319028 0.0 
0.910224 0.121964 0.0 
1.12747 0.219366 0.0 
0.851672 0.124238 0.0 
-0.039094 -0.0188379 0.0 
0.9789 0.0300368 0.0 
0.92529 0.0735649 0.0 
0.747296 0.140419 0.0 
0.979741 0.0267812 0.0 
0.912027 0.150029 0.0 
0.995875 0.012561 0.0 
0.903346 0.101397 0.0 
0.979234 0.0279501 0.0 
0.854188 0.0555924 0.0 
0.831321 0.0224667 0.0 
0.904513 0.164099 0.0 
0.998758 0.0114146 0.0 
0.96897 -0.00470004 0.0 
0.980205 0.0251234 0.0 
0.999091 0.0176403 0.0 
0.962822 -0.00473384 0.0 
0.961787 -0.0084089 0.0 
0.966273 -0.00418916 0.0 
0.938562 -0.0414311 0.0 
0.926055 0.0580692 0.0 
0.926678 0.0880249 0.0 
1.03934 -0.00135872 0.0 
0.989744 0.03208 0.0 
1.06161 0.0287427 0.0 
0.999184 0.0145415 0.0 
1.07683 -0.00527863 0.0 
1.00513 0.0797981 0.0 
0.949824 0.01328 0.0 
0.97696 0.0271193 0.0 
1.0502 -0.160744 0.0 
1.10226 0.242722 0.0 
1.125 0.230868 0.0 
0.933735 -0.0321952 0.0 
0.999077 0.0140695 0.0 
0.951312 0.0109362 0.0 
0.996373 0.0136469 0.0 
0.979613 0.00538825 0.0 
1.05389 0.0111134 0.0 
1.0491 -0.171459 0.0 
0.0865391 0.00230773 0.0 
0.668322 0.136749 0.0 