<VTKFile type="UnstructuredGrid" version="0.1" byte_order="LittleEndian">
  <UnstructuredGrid>
    <Piece NumberOfPoints="9712" NumberOfCells="19403">
      <Points>
        <DataArray type = "Float64" NumberOfComponents="3" format="ascii">
-5 -7 0.0 
15.5 -7 0.0 
15.5 7 0.0 
-5 7 0.0 
-1.6546 1.77742 0.0 
-2.13867 1.86504 0.0 
-1.83467 1.79143 0.0 
1.47969 -2.21179 0.0 
1.36003 -2.38618 0.0 
1.4346 -2.45048 0.0 
-2.04214 1.94165 0.0 
-0.20425 1.17338 0.0 
-2.07648 1.81911 0.0 
-2.00827 1.89081 0.0 
-2.05492 1.98872 0.0 
0.192693 0.536219 0.0 
0.154285 1.75648 0.0 
1.1379 -1.62057 0.0 
-2.11226 1.96977 0.0 
-1.74119 1.75327 0.0 
1.14499 -1.58184 0.0 
-1.94373 2.37229 0.0 
1.50619 -0.664239 0.0 
1.99658 -1.76705 0.0 
1.7229 -1.18344 0.0 
-1.97759 2.52091 0.0 
-0.768046 0.387136 0.0 
1.32657 -1.43969 0.0 
1.90142 0.24821 0.0 
-0.93264 1.51038 0.0 
1.09557 0.967223 0.0 
0.627111 0.757352 0.0 
-2.05707 2.31394 0.0 
1.34027 -2.45136 0.0 
-0.725097 0.397516 0.0 
-0.666094 2.30428 0.0 
-0.73829 -0.279965 0.0 
1.73336 -1.08822 0.0 
1.88466 -1.24421 0.0 
1.50539 -1.23752 0.0 
1.65978 -1.30759 0.0 
-0.0409718 0.542603 0.0 
1.6005 -1.1227 0.0 
1.78439 -0.941488 0.0 
1.86015 -1.54236 0.0 
1.49308 -1.40058 0.0 
2.34892 -1.47149 0.0 
2.13832 -1.3246 0.0 
1.73061 0.751302 0.0 
-0.580328 0.526903 0.0 
1.51013 -2.1595 0.0 
-1.65424 3.45779 0.0 
-1.51397 2.46352 0.0 
1.42773 -2.17867 0.0 
0.304353 0.497878 0.0 
2.24628 0.228293 0.0 
1.51258 -2.27933 0.0 
-1.60346 3.44299 0.0 
-1.71408 2.36227 0.0 
2.17421 0.530405 0.0 
2.42 0.316451 0.0 
-1.63642 3.31911 0.0 
2.53942 -0.995036 0.0 
0.750003 0.810439 0.0 
2.04736 0.40918 0.0 
1.19615 -1.50641 0.0 
2.13474 0.494063 0.0 
0.547924 0.306722 0.0 
-0.2059 0.361394 0.0 
2.2127 0.547693 0.0 
1.41442 -0.597105 0.0 
1.52233 -1.46252 0.0 
-1.84114 2.53924 0.0 
-5 -2.53894 0.0 
2.32127 0.371156 0.0 
-1.69186 3.33379 0.0 
-0.964779 0.566136 0.0 
-1.81311 2.48387 0.0 
-1.78557 3.38304 0.0 
1.48278 0.914136 0.0 
2.51531 -1.89689 0.0 
1.20982 -0.330514 0.0 
0.408434 0.319657 0.0 
0.95023 0.60993 0.0 
-0.752349 0.440796 0.0 
-0.998248 0.564019 0.0 
-1.73165 3.36299 0.0 
1.24353 -1.49063 0.0 
0.942095 0.817189 0.0 
-1.77816 2.47096 0.0 
2.48183 -1.95479 0.0 
1.33574 -1.77854 0.0 
0.823335 1.12085 0.0 
-0.36308 0.598468 0.0 
0.745466 0.783414 0.0 
-1.88344 2.8521 0.0 
-1.79794 3.52221 0.0 
3.0087 0.272815 0.0 
-1.81486 2.66014 0.0 
0.375911 -0.403668 0.0 
-0.68323 0.487288 0.0 
-0.34187 -0.274923 0.0 
-0.293875 -0.201368 0.0 
1.61018 -1.767 0.0 
-0.448275 -0.347267 0.0 
-1.08687 0.352015 0.0 
1.29257 -1.76345 0.0 
1.67658 -1.49551 0.0 
1.19193 0.533009 0.0 
1.21582 -1.91654 0.0 
-0.36438 -0.346225 0.0 
-0.92534 0.330346 0.0 
2.3836 0.287756 0.0 
1.68841 0.639887 0.0 
1.59001 -1.89458 0.0 
1.14818 -1.92143 0.0 
1.28996 -2.19426 0.0 
1.37603 -1.8763 0.0 
1.23834 -2.09141 0.0 
1.11702 -2.06287 0.0 
0.691829 0.463808 0.0 
1.46523 -2.03459 0.0 
-0.123547 0.424486 0.0 
-1.3311 2.12174 0.0 
1.08169 -1.90074 0.0 
1.87975 -2.15971 0.0 
1.10131 -1.78593 0.0 
1.13722 0.534683 0.0 
1.42465 -1.59031 0.0 
-1.45435 2.47344 0.0 
1.41998 -1.98207 0.0 
0.463917 1.8787 0.0 
-1.72896 2.89571 0.0 
1.12419 -1.84975 0.0 
1.59054 -1.20634 0.0 
0.46124 0.621002 0.0 
0.806438 -1.00204 0.0 
2.1804 0.349761 0.0 
2.21142 -1.6418 0.0 
1.10152 -0.274558 0.0 
2.23388 0.387302 0.0 
0.137769 0.567007 0.0 
1.88736 0.267391 0.0 
1.26821 -1.94267 0.0 
0.21033 -0.605707 0.0 
2.61094 -1.50046 0.0 
0.819837 0.743337 0.0 
-1.4303 2.07799 0.0 
1.82013 0.322126 0.0 
-1.47649 2.2099 0.0 
1.15745 -0.274223 0.0 
-1.81198 2.24994 0.0 
2.34337 -1.67775 0.0 
-1.13329 1.37877 0.0 
-0.828215 1.05292 0.0 
2.46752 -1.53452 0.0 
-1.69915 2.18529 0.0 
-0.404416 -0.286271 0.0 
-1.23501 1.31766 0.0 
2.11757 -1.50659 0.0 
-1.08535 1.28274 0.0 
2.58548 -1.70783 0.0 
0.24729 -0.572345 0.0 
-1.66963 2.25319 0.0 
1.58322 -1.62308 0.0 
-0.367923 -0.306026 0.0 
0.391521 1.44485 0.0 
1.88977 -2.46319 0.0 
1.5943 -1.53613 0.0 
-0.357143 -0.23651 0.0 
0.82621 0.80563 0.0 
-1.59261 2.31884 0.0 
-0.47244 -0.307516 0.0 
-0.40334 -0.326688 0.0 
-2.00063 2.11543 0.0 
1.55514 -1.95078 0.0 
-1.40431 2.26352 0.0 
-0.0265928 0.573714 0.0 
1.17093 1.10579 0.0 
-1.77907 2.22111 0.0 
0.682788 0.329642 0.0 
-0.54475 2.15572 0.0 
-0.288592 0.289433 0.0 
-1.43199 2.16349 0.0 
-1.45029 2.25134 0.0 
1.5535 -1.79992 0.0 
-1.06406 1.08381 0.0 
1.72954 1.44966 0.0 
0.582806 0.515814 0.0 
0.582876 -0.679913 0.0 
1.32351 -0.355916 0.0 
-0.47505 0.577092 0.0 
-0.371167 0.227715 0.0 
1.52235 -1.8529 0.0 
-0.429822 -0.244811 0.0 
-0.53237 -0.24648 0.0 
-0.393983 -0.210364 0.0 
0.652895 0.317361 0.0 
1.55812 -1.70765 0.0 
1.63021 0.325622 0.0 
0.442731 0.358729 0.0 
1.22925 -1.85192 0.0 
1.43517 -1.79082 0.0 
1.39317 -1.6984 0.0 
1.62965 0.295952 0.0 
0.905462 0.793465 0.0 
1.04036 -1.64811 0.0 
2.1131 -1.72466 0.0 
-0.743911 0.369492 0.0 
1.14427 -1.99314 0.0 
1.26033 -2.0209 0.0 
-1.70955 2.07308 0.0 
0.910023 -1.62976 0.0 
-0.313059 -0.0954838 0.0 
-1.77334 2.3988 0.0 
-0.311958 -0.24042 0.0 
2.53315 0.325608 0.0 
-0.273728 -0.226719 0.0 
-0.646401 0.379627 0.0 
1.52426 0.616074 0.0 
2.21703 -1.79499 0.0 
2.71108 0.312216 0.0 
0.759924 1.093 0.0 
-1.69271 2.12368 0.0 
0.255794 0.540969 0.0 
0.0534699 0.562158 0.0 
-1.5679 2.22408 0.0 
-1.66906 2.45165 0.0 
-1.51895 2.09449 0.0 
2.16948 0.408238 0.0 
-0.818806 0.680638 0.0 
-0.826868 0.642087 0.0 
0.519855 0.276992 0.0 
-0.716682 1.18602 0.0 
-0.649974 -0.148775 0.0 
0.457368 0.256619 0.0 
0.517407 0.248194 0.0 
0.327129 0.39802 0.0 
0.533249 -0.878832 0.0 
-0.870735 0.634904 0.0 
1.19219 1.07557 0.0 
2.35922 0.366028 0.0 
-1.66911 3.66723 0.0 
-0.857603 1.54934 0.0 
-0.379189 2.30131 0.0 
-0.941007 1.36523 0.0 
-1.58662 2.49682 0.0 
-0.545297 0.352587 0.0 
0.327944 -0.744683 0.0 
-0.312756 0.524741 0.0 
-0.107843 0.506233 0.0 
2.13378 -2.36584 0.0 
1.52689 0.686953 0.0 
-0.119983 0.327909 0.0 
1.02161 -1.53072 0.0 
1.51507 0.39695 0.0 
-0.674484 1.02605 0.0 
-0.564724 -0.148435 0.0 
0.409388 0.290913 0.0 
0.252349 0.30842 0.0 
-1.09282 1.45998 0.0 
1.45674 -1.54484 0.0 
-0.266777 0.782169 0.0 
0.91327 -0.874389 0.0 
1.01208 1.13309 0.0 
-0.897136 1.35063 0.0 
-0.846484 0.489353 0.0 
1.47563 0.663768 0.0 
-1.22282 2.05021 0.0 
0.348906 0.416714 0.0 
1.41913 0.964648 0.0 
0.933289 -0.839038 0.0 
-1.85066 1.40221 0.0 
0.142477 1.99435 0.0 
-0.717809 0.341194 0.0 
-2.21177 1.41584 0.0 
0.396571 0.350929 0.0 
1.25171 -1.60721 0.0 
0.736798 0.393502 0.0 
-0.661427 0.19031 0.0 
2.18751 -2.32769 0.0 
-1.00908 1.6747 0.0 
2.21416 -2.07269 0.0 
-0.779194 0.642011 0.0 
-1.02312 1.3939 0.0 
2.08809 -2.24876 0.0 
-5 -4.48794 0.0 
1.61792 -1.46215 0.0 
-0.974627 1.38947 0.0 
1.81166 -2.48446 0.0 
-1.03635 1.47474 0.0 
0.869004 -1.74424 0.0 
0.956579 -1.78598 0.0 
1.07495 0.540689 0.0 
-1.08005 1.37763 0.0 
0.914755 -0.803058 0.0 
0.611759 -0.305322 0.0 
1.70043 -1.41356 0.0 
0.75708 -0.631542 0.0 
1.21215 1.01979 0.0 
-0.586902 0.440014 0.0 
1.9251 -2.56336 0.0 
-1.58261 1.91091 0.0 
-0.746541 1.26087 0.0 
-1.49915 1.13657 0.0 
-1.46675 0.971536 0.0 
-1.05881 0.930935 0.0 
0.71826 0.415078 0.0 
-0.701697 0.526982 0.0 
-1.56194 2.05157 0.0 
1.15988 0.991244 0.0 
1.38676 0.949615 0.0 
-1.61697 2.02689 0.0 
1.13748 -0.357331 0.0 
-1.8456 2.04561 0.0 
0.253686 -0.756334 0.0 
-1.53603 1.86509 0.0 
-1.43465 0.924137 0.0 
-1.00273 1.27416 0.0 
-1.03063 1.5132 0.0 
-1.32483 1.94769 0.0 
-0.965552 1.61445 0.0 
-0.239859 -0.245939 0.0 
-5 3.01776 0.0 
-5 -0.248741 0.0 
0.517491 1.87079 0.0 
-1.18776 1.8875 0.0 
2.27458 0.36201 0.0 
1.9794 0.331487 0.0 
0.503086 0.510306 0.0 
1.26387 -0.370702 0.0 
1.24483 0.550197 0.0 
1.12871 0.979556 0.0 
-1.48659 1.83259 0.0 
1.0672 0.958366 0.0 
-1.16856 1.61214 0.0 
-0.218637 -0.230696 0.0 
-5 1.81431 0.0 
1.37014 1.04658 0.0 
0.0950623 0.557621 0.0 
-1.23613 1.67303 0.0 
0.953731 -0.709843 0.0 
2.07568 -1.85385 0.0 
2.10836 -1.82014 0.0 
-0.994952 1.33552 0.0 
-1.86986 1.52312 0.0 
0.515812 0.447542 0.0 
0.842446 0.992035 0.0 
-1.42353 1.8223 0.0 
2.091 0.354014 0.0 
-0.937663 0.401428 0.0 
-1.69305 1.41997 0.0 
-1.82465 1.55127 0.0 
2.15192 0.384657 0.0 
-1.17972 1.37998 0.0 
-0.718866 -0.0130647 0.0 
-0.927867 0.290435 0.0 
1.56509 0.300406 0.0 
-5 -3.04052 0.0 
9.98027 -7 0.0 
0.176009 0.694641 0.0 
0.597997 -0.559941 0.0 
-0.546583 0.4849 0.0 
0.602022 -0.657834 0.0 
2.17737 0.379672 0.0 
1.89809 0.287017 0.0 
-1.58883 1.35796 0.0 
-1.2284 1.37063 0.0 
-1.43937 1.35342 0.0 
-1.59664 1.47263 0.0 
0.577431 -0.368705 0.0 
1.5263 -1.51093 0.0 
0.479666 0.796509 0.0 
0.894995 1.01463 0.0 
2.22312 0.363016 0.0 
-0.320562 0.726481 0.0 
-1.30188 2.41386 0.0 
0.43802 0.434693 0.0 
-0.761697 0.762024 0.0 
1.45688 -1.49591 0.0 
-0.65072 0.676835 0.0 
1.6097 -1.41509 0.0 
2.25768 0.399237 0.0 
1.85518 0.299709 0.0 
2.14618 0.290757 0.0 
2.25222 0.371677 0.0 
-1.93063 2.91367 0.0 
1.52717 0.319618 0.0 
1.67964 -1.62237 0.0 
1.35962 -0.439169 0.0 
1.63007 -1.54335 0.0 
-5 -0.764504 0.0 
-1.61377 2.62271 0.0 
1.73865 -1.57725 0.0 
-0.908306 1.23669 0.0 
1.60766 0.330292 0.0 
1.82509 -1.63054 0.0 
1.90521 0.312457 0.0 
1.98719 -1.6488 0.0 
-0.528791 0.39225 0.0 
1.94978 -2.39003 0.0 
-0.472559 0.718465 0.0 
-1.28058 2.26572 0.0 
0.881581 -0.556282 0.0 
2.26369 0.42542 0.0 
0.917309 -1.69962 0.0 
0.853954 -1.60945 0.0 
1.30086 -0.404316 0.0 
1.99565 -2.46852 0.0 
1.49445 -1.47573 0.0 
1.68285 0.863315 0.0 
2.03074 -2.37549 0.0 
2.52279 -0.506167 0.0 
2.56049 -1.76899 0.0 
-1.52889 2.56597 0.0 
2.81136 -0.570221 0.0 
1.3688 -1.46095 0.0 
1.29524 -0.373946 0.0 
-0.350504 0.671928 0.0 
-0.590282 0.564035 0.0 
-0.054366 2.16706 0.0 
1.50819 1.22548 0.0 
-0.548222 0.453941 0.0 
2.19936 -2.5207 0.0 
12.2704 -7 0.0 
1.6811 -1.36761 0.0 
-0.449261 0.559535 0.0 
0.537017 -0.527614 0.0 
-0.00733391 0.553304 0.0 
0.494109 -0.356396 0.0 
-0.7939 0.0827441 0.0 
0.39888 0.467333 0.0 
-1.04288 1.34095 0.0 
0.605019 1.02824 0.0 
0.847559 0.374727 0.0 
1.00336 0.618307 0.0 
2.1955 0.399186 0.0 
0.656973 0.401158 0.0 
-0.998431 2.73564 0.0 
[...]
<PointData>
  <DataArray type = "Float64" Name="VitesseP1" NumberOfComponents="3" format="ascii">
1 0 0.0 
1.09236 0 0.0 
1.03485 0 0.0 
1 0 0.0 
0.994549 0.0159312 0.0 
0.99687 0.0112327 0.0 
0.995438 0.0137262 0.0 
1.04183 -0.00456372 0.0 
1.04363 -0.0058114 0.0 
1.04881 -0.00544081 0.0 
0.997719 0.0121695 0.0 
0.986278 0.0731112 0.0 
0.996562 0.0115661 0.0 
0.996773 0.0123609 0.0 
0.998886 0.0121731 0.0 
0.991451 0.218743 0.0 
1.01983 0.0541616 0.0 
1.04994 -0.0267588 0.0 
0.99881 0.0115893 0.0 
0.994969 0.0146575 0.0 
1.05506 -0.0277265 0.0 
0.998814 0.0135188 0.0 
1.15949 -0.0275157 0.0 
1.04744 0.0112627 0.0 
1.06372 -0.00308232 0.0 
0.998777 0.0131 0.0 
0.94428 0.00881977 0.0 
1.06317 -0.0228991 0.0 
0.0613963 0.000778815 0.0 
0.988666 0.0316129 0.0 
1.14275 0.0699262 0.0 
1.10931 0.143656 0.0 
0.99881 0.0125152 0.0 
1.03362 -0.0189062 0.0 
0.94111 0.0124195 0.0 
1.00534 0.0306171 0.0 
0.936556 -0.0514788 0.0 
1.08494 -0.00298966 0.0 
1.05643 0.00770091 0.0 
1.05378 -0.0166421 0.0 
1.05658 -0.00608056 0.0 
0.926305 0.152022 0.0 
1.07518 -0.0122686 0.0 
1.12681 0.000208637 0.0 
1.06879 0.00608563 0.0 
1.06356 -0.0147422 0.0 
1.06366 0.0337361 0.0 
1.05732 0.0234613 0.0 
1.20099 0.031471 0.0 
0.939247 0.035833 0.0 
1.04067 -0.00450986 0.0 
1.00251 0.0124549 0.0 
0.999751 0.0177155 0.0 
1.04011 -0.00613202 0.0 
1.0367 0.243902 0.0 
0.0341848 -0.00843162 0.0 
1.04343 -0.00353256 0.0 
1.00274 0.0128636 0.0 
0.999036 0.0157946 0.0 
1.1531 -0.000659992 0.0 
0.101383 -0.0123788 0.0 
1.00238 0.0131418 0.0 
1.09731 0.0603919 0.0 
1.12237 0.122386 0.0 
0.527417 0.00385936 0.0 
1.06091 -0.0276968 0.0 
1.05127 0.000741219 0.0 
0.552153 0.134461 0.0 
0.862245 0.085669 0.0 
1.17774 -0.0048745 0.0 
1.20269 -0.0393151 0.0 
1.06717 -0.0123365 0.0 
0.998988 0.014251 0.0 
1 0 0.0 
0.267243 -0.0174478 0.0 
1.00215 0.0127107 0.0 
0.967956 0.010722 0.0 
0.99901 0.0146085 0.0 
1.00177 0.0118772 0.0 
1.17428 0.0384657 0.0 
1.03797 0.0222098 0.0 
0.747375 -0.0408671 0.0 
0.946314 0.263369 0.0 
1.17265 0.117384 0.0 
0.945919 0.0143748 0.0 
0.969778 0.00901283 0.0 
1.00205 0.0123152 0.0 
1.06227 -0.0259314 0.0 
1.14327 0.0994588 0.0 
0.999074 0.0149598 0.0 
1.04464 0.0269285 0.0 
1.04305 -0.015219 0.0 
1.09711 0.0810348 0.0 
0.93514 0.0703461 0.0 
1.12465 0.126536 0.0 
0.99983 0.0130392 0.0 
1.00219 0.0110974 0.0 
-0.0173946 -0.142436 0.0 
0.999178 0.0141879 0.0 
1.19007 -0.234834 0.0 
0.9438 0.0231737 0.0 
0.918301 -0.0884984 0.0 
0.915105 -0.0745705 0.0 
1.04751 -0.00472451 0.0 
0.923916 -0.0784381 0.0 
0.967009 -0.00809128 0.0 
1.04276 -0.0171686 0.0 
1.06907 -0.00374067 0.0 
1.19507 0.0859788 0.0 
1.03789 -0.0166699 0.0 
0.919586 -0.0887857 0.0 
0.954644 -0.00357293 0.0 
0.0623336 -0.0038889 0.0 
1.20351 0.0385656 0.0 
1.04403 -0.00451854 0.0 
1.03632 -0.0184953 0.0 
1.03779 -0.0087905 0.0 
1.04185 -0.0121144 0.0 
1.03528 -0.0125468 0.0 
1.03243 -0.017484 0.0 
1.16197 0.185713 0.0 
1.03894 -0.00701531 0.0 
0.876732 0.126283 0.0 
0.999019 0.0212059 0.0 
1.03525 -0.0210103 0.0 
1.04075 0.00460601 0.0 
1.03779 -0.0234069 0.0 
1.19477 0.0933991 0.0 
1.06137 -0.0152487 0.0 
0.999998 0.0183478 0.0 
1.03905 -0.00909967 0.0 
1.02988 0.0476856 0.0 
1.0007 0.0140958 0.0 
1.03722 -0.021057 0.0 
1.05856 -0.0116208 0.0 
1.08665 0.190244 0.0 
1.06782 -0.0739981 0.0 
0.12704 0.00111676 0.0 
1.05507 0.0222975 0.0 
0.453971 -0.0392182 0.0 
0.371038 -0.0107477 0.0 
0.976943 0.197123 0.0 
0.0662453 -0.00567463 0.0 
1.0379 -0.0145106 0.0 
1.02981 -0.160957 0.0 
1.05121 0.0496245 0.0 
1.13885 0.122516 0.0 
0.998732 0.0198032 0.0 
0.0752572 0.00557594 0.0 
0.998893 0.0188788 0.0 
0.407471 -0.0173189 0.0 
0.998723 0.0148705 0.0 
1.04688 0.0270169 0.0 
0.98507 0.0248036 0.0 
0.9733 0.0346458 0.0 
1.0567 0.0382795 0.0 
0.99855 0.0161287 0.0 
0.922323 -0.079647 0.0 
0.984077 0.0211963 0.0 
1.06773 0.0200111 0.0 
0.981485 0.0256609 0.0 
1.03353 0.0337221 0.0 
1.03907 -0.171438 0.0 
0.998833 0.0164253 0.0 
1.05938 -0.0072952 0.0 
0.919707 -0.086031 0.0 
1.03431 0.0705187 0.0 
1.04655 -0.00203142 0.0 
1.06776 -0.00770226 0.0 
0.915987 -0.0818004 0.0 
1.13237 0.114349 0.0 
0.999143 0.0172185 0.0 
0.927234 -0.0728553 0.0 
0.921747 -0.0827402 0.0 
0.998595 0.0129091 0.0 
1.04156 -0.00527425 0.0 
0.999387 0.0197164 0.0 
0.938383 0.152007 0.0 
1.13142 0.0512282 0.0 
0.998664 0.0152304 0.0 
0.627782 0.110673 0.0 
1.00602 0.0347248 0.0 
0.862858 0.0455756 0.0 
0.998853 0.0195994 0.0 
0.999194 0.0191296 0.0 
1.04565 -0.00667978 0.0 
0.97382 0.0241347 0.0 
1.0744 -0.0410618 0.0 
1.14028 0.201108 0.0 
1.10776 -0.129585 0.0 
0.864895 -0.0313526 0.0 
0.937889 0.0521325 0.0 
0.874573 0.0164966 0.0 
1.04433 -0.0073159 0.0 
0.923614 -0.073191 0.0 
0.93279 -0.0626771 0.0 
0.918337 -0.0743192 0.0 
0.576092 0.110866 0.0 
1.05082 -0.00749575 0.0 
0.108228 0.0174356 0.0 
1.03507 0.265659 0.0 
1.03957 -0.017578 0.0 
1.04446 -0.0113274 0.0 
1.04926 -0.0146178 0.0 
0.0887474 0.0258652 0.0 
1.14239 0.1061 0.0 
1.04412 -0.0296123 0.0 
1.0485 0.016538 0.0 
0.941161 0.00865467 0.0 
1.03375 -0.0173874 0.0 
1.0357 -0.0132079 0.0 
0.998695 0.0160053 0.0 
1.04117 -0.0348123 0.0 
0.89811 -0.0655273 0.0 
0.999004 0.0151267 0.0 
0.909198 -0.0858203 0.0 
0.164657 -0.0173514 0.0 
0.887312 -0.0839953 0.0 
0.93232 0.0161949 0.0 
1.20128 0.0498998 0.0 
1.04421 0.0198594 0.0 
0.240913 -0.0231716 0.0 
1.09643 0.088589 0.0 
0.998505 0.0162113 0.0 
1.0181 0.22377 0.0 
0.950861 0.177792 0.0 
0.998829 0.0176774 0.0 
0.999278 0.0160827 0.0 
0.998702 0.0184978 0.0 
0.519328 -0.00586552 0.0 
0.967511 0.0252584 0.0 
0.965203 0.0227534 0.0 
0.411438 0.135714 0.0 
0.976327 0.0411376 0.0 
0.93986 -0.0444809 0.0 
0.299137 0.101196 0.0 
0.373504 0.184473 0.0 
1.06174 0.297489 0.0 
1.06827 -0.10348 0.0 
0.966975 0.0196602 0.0 
1.13896 0.0516139 0.0 
0.251533 -0.0171938 0.0 
1.00072 0.0117276 0.0 
0.990278 0.0339515 0.0 
1.00953 0.0351316 0.0 
0.983663 0.031292 0.0 
0.999583 0.0168235 0.0 
0.918395 0.0214615 0.0 
1.05776 -0.131978 0.0 
0.918565 0.0759291 0.0 
0.908159 0.132323 0.0 
1.04632 0.0135641 0.0 
1.19282 0.0468531 0.0 
0.829289 0.116913 0.0 
1.05536 -0.0344247 0.0 
0.539034 0.0226277 0.0 
0.975638 0.0437703 0.0 
0.932214 -0.0503689 0.0 
0.698879 0.194617 0.0 
0.897744 0.339263 0.0 
0.987183 0.026474 0.0 
1.06552 -0.0143707 0.0 
0.96696 0.0866498 0.0 
1.1122 -0.0774812 0.0 
1.11181 0.0640892 0.0 
0.983037 0.0329506 0.0 
0.956065 0.0121876 0.0 
1.19329 0.0518977 0.0 
0.999114 0.0232239 0.0 
1.07609 0.284623 0.0 
1.16732 0.0398841 0.0 
1.12257 -0.0785192 0.0 
0.994039 0.0102489 0.0 
1.01827 0.0457787 0.0 
0.937159 0.00754031 0.0 
0.997205 0.00855893 0.0 
1.01639 0.284905 0.0 
1.05513 -0.0224345 0.0 
0.994793 0.152233 0.0 
0.924804 -0.00657289 0.0 
1.0367 0.0318415 0.0 
0.992741 0.0289617 0.0 
1.03716 0.0166166 0.0 
0.962605 0.0259522 0.0 
0.984899 0.0284807 0.0 
1.03678 0.00767857 0.0 
1 0 0.0 
1.06831 -0.00714759 0.0 
0.984618 0.0301369 0.0 
1.04469 -0.00146269 0.0 
0.987474 0.0282678 0.0 
1.0318 -0.0318795 0.0 
1.03391 -0.0280493 0.0 
1.19217 0.102449 0.0 
0.984696 0.0264993 0.0 
1.12815 -0.0831189 0.0 
0.911451 -0.146943 0.0 
1.06666 -0.0029808 0.0 
1.12636 -0.115496 0.0 
1.14746 0.0541932 0.0 
0.931033 0.027476 0.0 
1.03656 0.00132976 0.0 
0.995888 0.0173992 0.0 
0.979603 0.0394958 0.0 
0.983973 0.0112667 0.0 
0.995468 0.0105167 0.0 
0.990009 0.0214485 0.0 
1.08603 0.169511 0.0 
0.948349 0.0247253 0.0 
0.998679 0.017866 0.0 
1.14594 0.061573 0.0 
1.16593 0.0435295 0.0 
0.998424 0.0171059 0.0 
0.926904 -0.0578264 0.0 
0.999063 0.0143797 0.0 
1.04197 -0.128725 0.0 
0.994978 0.0179955 0.0 
1.0002 0.0111732 0.0 
0.980613 0.028561 0.0 
0.988731 0.0285114 0.0 
0.996518 0.0216039 0.0 
0.991816 0.0303575 0.0 
0.881636 -0.105794 0.0 
1 0 0.0 
1 0 0.0 
1.03183 0.0471161 0.0 
0.995176 0.0242626 0.0 
0.204999 -0.0126988 0.0 
0.0531126 0.0133366 0.0 
1.11586 0.218185 0.0 
0.954846 -0.0462063 0.0 
1.19987 0.0797629 0.0 
1.14444 0.0656094 0.0 
0.994405 0.0187066 0.0 
1.14116 0.0735407 0.0 
0.991746 0.0248012 0.0 
0.947744 -0.164135 0.0 
1 0 0.0 
1.15799 0.0372271 0.0 
0.961122 0.190432 0.0 
0.992695 0.0233043 0.0 
1.14243 -0.0861176 0.0 
1.04418 0.0136691 0.0 
1.04464 0.0153489 0.0 
0.982738 0.0292278 0.0 
0.995316 0.0114987 0.0 
1.1268 0.233349 0.0 
1.11829 0.0925531 0.0 
0.994152 0.0197642 0.0 
0.141373 0.00243609 0.0 
0.958319 0.0012381 0.0 
0.992054 0.0123009 0.0 
0.995243 0.0122143 0.0 
0.340349 -0.00258315 0.0 
0.985423 0.0234086 0.0 
0.948288 -0.0293459 0.0 
0.953436 -0.00679878 0.0 
0.092858 -0.0108604 0.0 
1 0 0.0 
1.07151 0 0.0 
1.00733 0.166804 0.0 
1.11879 -0.146779 0.0 
0.931779 0.0359853 0.0 
1.11162 -0.130886 0.0 
0.307441 -0.00403652 0.0 
0.0768233 -0.00234406 0.0 
0.989583 0.0130339 0.0 
0.985561 0.0219177 0.0 
0.987367 0.0161862 0.0 
0.99161 0.0144698 0.0 
1.10651 -0.173919 0.0 
1.0674 -0.0114249 0.0 
1.0793 0.148182 0.0 
1.12134 0.0855503 0.0 
0.207652 -0.00606883 0.0 
0.956486 0.0794703 0.0 
1.0005 0.0204399 0.0 
1.10986 0.258066 0.0 
0.972166 0.0327082 0.0 
1.06655 -0.0152946 0.0 
0.959154 0.0380413 0.0 
1.06611 -0.00815005 0.0 
0.460011 -0.0144839 0.0 
0.0762073 0.00895326 0.0 
0.058867 0.00269077 0.0 
0.267277 -0.008848 0.0 
0.999797 0.0124602 0.0 
0.0790784 0.000963888 0.0 
1.06013 -0.00279852 0.0 
1.15645 -0.0440399 0.0 
1.06779 -0.0058393 0.0 
1 0 0.0 
0.999706 0.0161306 0.0 
1.06595 -6.62471e-05 0.0 
0.978987 0.0321593 0.0 
0.0941817 0.00770652 0.0 
1.05992 0.00417811 0.0 
0.0738323 0.000560647 0.0 
1.05727 0.0117541 0.0 
0.920086 0.028155 0.0 
1.04155 -0.000159524 0.0 
0.957181 0.0585187 0.0 
0.999865 0.0214272 0.0 
1.19485 -0.111073 0.0 
0.648287 -0.0160854 0.0 
1.03594 -0.0319297 0.0 
1.04151 -0.0373566 0.0 
1.06476 -0.0457156 0.0 
1.05439 0.00966394 0.0 
1.06706 -0.0136509 0.0 
1.18921 0.024251 0.0 
1.04113 0.0134797 0.0 
1.24762 0.0818949 0.0 
1.03523 0.0288442 0.0 
0.999906 0.0171841 0.0 
1.18081 0.108097 0.0 
1.06447 -0.0204483 0.0 
0.967553 -0.0463574 0.0 
0.947539 0.0744011 0.0 
0.944033 0.0375026 0.0 
1.01433 0.0420488 0.0 
1.13715 0.00128212 0.0 
0.928676 0.0328256 0.0 
1.00588 -0.00606459 0.0 
1.06871 0 0.0 
1.06294 -0.00434975 0.0 
0.933599 0.0546208 0.0 
1.13856 -0.164316 0.0 
0.935147 0.160971 0.0 
1.10117 -0.19529 0.0 
0.952407 -0.0200752 0.0 
1.08659 0.251904 0.0 
0.983209 0.0275259 0.0 
1.0875 0.105975 0.0 
0.781441 0.101815 0.0 
1.17533 0.10861 0.0 
0.453739 -0.00817145 0.0 
1.07268 0.187434 0.0 
1.00396 0.0215615 0.0 
1.057 0.0146069 0.0 
1.043 0.00799284 0.0 
1.04809 -0.00172982 0.0 
1.0465 -0.000616692 0.0 
0.0517282 0.004454 0.0 
1.04182 0.00133115 0.0 
-0.0774828 0.0221059 0.0 
1.03149 -0.0359035 0.0 
1.00407 0.0351982 0.0 
1.04478 0.00862218 0.0 
1 0 0.0 
0.983195 0.0263565 0.0 
1.19293 0.0983586 0.0 
0.728473 -0.0372567 0.0 
0.99956 0.0155664 0.0 
0.991782 0.0391584 0.0 
1.05059 0.00940483 0.0 
1.05535 0.00448688 0.0 
0.939265 0.189669 0.0 
0.774437 0.130816 0.0 
1.0043 0.0186394 0.0 
1.14291 0.130698 0.0 
0.998994 0.24411 0.0 
0.99908 0.012161 0.0 
0.985996 0.029251 0.0 
1.05182 0.000363257 0.0 
0.937489 0.125171 0.0 
0.149902 0.0180898 0.0 
1.05084 0.00251997 0.0 
0.171911 0.0986276 0.0 
1.051 -0.00173449 0.0 
0.996203 -0.0139295 0.0 
1.01637 0.0473315 0.0 
1.09935 -0.0381582 0.0 
1.0475 0.00149036 0.0 
0.956944 -0.00618959 0.0 
0.327863 0.0135704 0.0 
1.0632 -0.0237867 0.0 
0.946456 -0.00137072 0.0 
0.999769 0.01526 0.0 
1.06062 -0.0286932 0.0 
0.941577 0.0660652 0.0 
1.19747 -0.0468026 0.0 
0.234405 -0.00307237 0.0 
0.579376 -0.0199444 0.0 
0.940952 -0.00456249 0.0 
0.963691 0.273033 0.0 
0.249284 0.0477945 0.0 
0.995661 0.316538 0.0 
0.91651 -0.00746527 0.0 
1.07847 -0.0440648 0.0 
0.682256 0.000794675 0.0 
0.354956 0.116132 0.0 
1.10302 0.0718815 0.0 
0.998676 0.0122625 0.0 
0.534083 0.00220304 0.0 
0.13822 0.0414936 0.0 
0.914226 -0.0433871 0.0 
0.730448 -0.0255035 0.0 
1.03133 0.0459244 0.0 
0.998755 0.0118477 0.0 
1.02556 -0.0986529 0.0 
1.11071 -0.0356655 0.0 
1.17499 0.0279881 0.0 
0.0762474 0.00206385 0.0 
0.936058 -0.0577256 0.0 
1.03503 0.0424702 0.0 
1.06713 -0.00929405 0.0 
0.93792 -0.00896668 0.0 
0.0648518 0.00801734 0.0 
0.998776 0.0127814 0.0 
1.17353 0.0322331 0.0 
1.05912 -0.0278949 0.0 
0.963104 0.21681 0.0 
1.05334 0.0140425 0.0 
1.06876 -0.000950038 0.0 
1.06889 0.00386845 0.0 
0.954386 0.0378002 0.0 
1.06108 -0.0256924 0.0 
0.9989 0.013974 0.0 
0.952113 0.00714874 0.0 
1.13457 -0.0347511 0.0 
1.05483 0.0191949 0.0 
0.989318 0.00739161 0.0 
0.953294 0.0154452 0.0 
0.998939 0.0141627 0.0 
1.05812 0.00392462 0.0 
1.04113 -0.00593069 0.0 
1.06099 -0.0229414 0.0 
0.990485 0.00904079 0.0 
1.02128 0.0462393 0.0 
0.998869 0.0134011 0.0 
1.04532 -0.0274247 0.0 
1.06609 0.0182572 0.0 
0.0532026 0.0080565 0.0 
0.0490587 0.01274 0.0 
1.06937 0.0141888 0.0 
0.905034 -0.0564379 0.0 
0.884391 -0.0484309 0.0 
0.873342 0.121235 0.0 
0.999385 0.0141116 0.0 
0.998835 0.0140747 0.0 
0.962749 -0.0131829 0.0 
0.964911 -0.00193006 0.0 
1.03468 0.0251102 0.0 
0.96302 0.235668 0.0 
1.06679 0.153396 0.0 
1.02964 -0.0451326 0.0 
0.0600788 -0.00224502 0.0 
1.16296 0.0273521 0.0 
1.09449 0.148563 0.0 
0.998695 0.013588 0.0 
1.01526 0.0357208 0.0 
1.115 -0.00632084 0.0 
0.982785 0.0210942 0.0 
0.934282 0.0467222 0.0 
1.03087 -0.0298747 0.0 
0.973284 0.0376247 0.0 
0.940877 0.109542 0.0 
0.933932 0.0592959 0.0 
0.772401 -0.0351792 0.0 
0.962788 0.00719874 0.0 
0.784513 -0.0485473 0.0 
1.00098 0.0183661 0.0 
1.03188 0.0436398 0.0 
0.953716 -0.0101955 0.0 
0.961483 -0.000972785 0.0 
0.922398 0.0344467 0.0 
1.09918 0.250296 0.0 
0.972276 0.00615453 0.0 
0.940082 0.292359 0.0 
0.945241 0.0330122 0.0 
0.974485 0.227246 0.0 
0.84775 0.286364 0.0 
0.995182 0.00759909 0.0 
1.00108 0 0.0 
0.998807 0.0122383 0.0 
0.977229 0.00159967 0.0 
0.888458 0.154677 0.0 
0.128077 0.00892865 0.0 
1.01077 0.0435946 0.0 
0.98073 0.00722821 0.0 
0.999393 0.0126373 0.0 
0.915426 -0.071887 0.0 
0.9164 0.0332355 0.0 
1.19312 -0.0354415 0.0 
0.998689 0.012513 0.0 
0.949608 0.0734582 0.0 
0.698304 -0.0664697 0.0 
1.03356 -0.024037 0.0 
0.935989 0.0640499 0.0 
0.995253 0.0163389 0.0 
0.944278 0.0277471 0.0 
0.991032 0.0201898 0.0 
0.0762861 0.0134371 0.0 
0.693336 -0.0586149 0.0 
1.04317 -0.00388933 0.0 
1.15831 0.083254 0.0 
1.12756 -0.0242085 0.0 
0.997698 0.0107953 0.0 
0.982138 0.0187302 0.0 
1.00059 0.2032 0.0 
1.11364 0.159668 0.0 
0.57663 0.0956755 0.0 
0.950567 0.189891 0.0 
0.981512 0.0190985 0.0 
0.241083 -0.0203428 0.0 
0.982507 0.0220358 0.0 
0.997277 0.0128593 0.0 
1.0003 0.0198015 0.0 
0.186989 -0.023826 0.0 
0.152517 -0.0141403 0.0 
0.981692 0.0303376 0.0 
0.333276 0.058016 0.0 
1.19198 0.0942114 0.0 
1.00999 0.0430795 0.0 
0.98085 0.0326117 0.0 
0.99967 0.0196953 0.0 
0.977881 0.0113338 0.0 
0.93006 0.0691151 0.0 
0.97654 0.0259324 0.0 
0.851272 0.285592 0.0 
0.440672 -0.0329546 0.0 
0.179711 -0.00722507 0.0 
0.968127 0.0136353 0.0 
0.974748 0.0122481 0.0 
1.05362 0.206035 0.0 
0.245222 -0.0303053 0.0 
0.939712 0.0211792 0.0 
1.03407 -0.0393388 0.0 
0.982227 0.246703 0.0 
0.999235 0.0137461 0.0 
0.922262 0.0822707 0.0 
0.972289 0.0312369 0.0 
0.929719 0.143951 0.0 
0.953476 0.157436 0.0 
1.00797 0.256209 0.0 
0.669928 -0.0284809 0.0 
0.937086 -0.0524473 0.0 
1.11756 0.0591602 0.0 
0.464482 0.0937292 0.0 
0.926146 -0.0597488 0.0 
0.0719056 -0.0042006 0.0 
0.898768 -0.0127608 0.0 
0.74256 0.136343 0.0 
0.914783 -0.0664698 0.0 
0.921912 -0.0562104 0.0 
0.609854 0.165186 0.0 
1.04723 0.00651995 0.0 
0.940389 0.174137 0.0 
0.879362 -0.00477526 0.0 
0.928059 -0.0538077 0.0 
1.04016 -0.00635499 0.0 
0.336118 0.0413999 0.0 
1.03714 -0.00952706 0.0 
0.865758 0.00759172 0.0 
0.893603 0.217786 0.0 
1.0479 -0.00197825 0.0 
0.906263 -0.0881439 0.0 
0.91652 0.183648 0.0 
0.228238 -0.028869 0.0 
1.13121 0.0620402 0.0 
1.02994 0.171742 0.0 
0.829293 0.38095 0.0 
1.10151 0.166769 0.0 
1.06203 0.261105 0.0 
0.909169 -0.0356214 0.0 
0.652882 -0.0783709 0.0 
0.977644 0.0335736 0.0 
0.512967 0.0620986 0.0 
0.91815 -0.0526788 0.0 
1.04675 0.0675114 0.0 
0.131587 -0.00847273 0.0 
1.04291 0.264791 0.0 
1.05906 0.0408198 0.0 
0.878631 0.10574 0.0 
1.005 0.0220897 0.0 
0.89246 0.0673224 0.0 
0.0800676 0.00348271 0.0 
0.852929 0.0767657 0.0 
0.949283 0.0371452 0.0 
0.947197 0.0039902 0.0 
1.17344 -0.0405437 0.0 
0.762255 0.33574 0.0 
0.847267 0.0895025 0.0 
1.02882 0.0738144 0.0 
1.08137 -0.0962072 0.0 
0.920819 -0.0469016 0.0 
1.03797 0.27296 0.0 
0.964641 0.0170475 0.0 
0.995691 0.0405408 0.0 
0.909979 0.0774429 0.0 
0.924244 0.113212 0.0 
0.910451 0.0356911 0.0 
1.0089 0.0276487 0.0 
0.919491 0.106493 0.0 
0.916751 0.221526 0.0 
0.999167 0.0128288 0.0 
1.09133 -0.0718928 0.0 
0.244709 -0.0286028 0.0 
1.05133 0.252438 0.0 
0.96553 0.203911 0.0 
0.806601 0.151644 0.0 
0.826571 0.0384655 0.0 
0.886017 0.0300893 0.0 
1.04077 0.306148 0.0 
0.999542 0.0175292 0.0 
1.1243 0.142224 0.0 
1.03227 0.227617 0.0 
0.886057 -0.048253 0.0 
0.922723 -0.00182117 0.0 
0.857877 0.158908 0.0 
0.910733 0.0208676 0.0 
0.884894 0.0150567 0.0 
0.932107 -0.0461168 0.0 
0.93354 0.207993 0.0 
0.995631 0.0305475 0.0 
0.999543 0.015027 0.0 
0.0679597 0.00758325 0.0 
0.0655876 0.00519149 0.0 
0.91269 0.0280059 0.0 
0.523134 0.153471 0.0 
1.03832 -0.00807068 0.0 
0.92149 -0.0163098 0.0 
0.977933 -0.000899199 0.0 
0.902324 0.0768992 0.0 
0.84152 0.00692647 0.0 
1.08132 -0.068283 0.0 
0.954944 0.00811085 0.0 
0.975457 0.00923899 0.0 
1.08297 0.269016 0.0 
0.168167 -0.0177926 0.0 
0.929679 0.300862 0.0 
0.972931 0.0027393 0.0 
0.988853 0.0545362 0.0 
1.06807 -0.229638 0.0 
0.968897 0.00479359 0.0 
0.961616 0.0127097 0.0 
0.997686 0.0134183 0.0 
1.03762 -0.00925099 0.0 
0.789867 0.109299 0.0 
0.904232 0.0186 0.0 
0.99089 0.00553384 0.0 
1.0275 -0.183126 0.0 
0.995132 0.0156119 0.0 
0.93532 0.0243344 0.0 
0.80554 0.168539 0.0 
0.949892 -0.00843914 0.0 
0.998109 0.0102712 0.0 
0.938594 0.00484387 0.0 
0.187597 0.128356 0.0 
0.94372 -0.00834373 0.0 
1.06497 -0.0106393 0.0 
0.95301 0.289423 0.0 
0.0499718 0.00145703 0.0 
1.1001 0.256459 0.0 
0.987956 0.01504 0.0 
0.846838 -0.106711 0.0 
0.96879 0.00194552 0.0 
0.959525 0.00928243 0.0 
0.959778 0.00465885 0.0 
0.541169 0.134576 0.0 
0.961824 0.0019644 0.0 
0.95591 -0.0135461 0.0 
0.648103 0.184204 0.0 
1.03434 -0.0130436 0.0 
1.03517 0.0462266 0.0 
0.994546 0.266772 0.0 
0.980954 0.021025 0.0 
0.975363 0.0292704 0.0 
0.964595 0.00405069 0.0 
0.893213 0.0131081 0.0 
0.958871 -0.0178641 0.0 
0.107038 0.000688701 0.0 
0.968651 -0.00012979 0.0 
1.06007 0.0160045 0.0 
0.875725 0.168526 0.0 
0.99646 0.0121995 0.0 
1.06622 0.0268336 0.0 
1.05782 0.0965104 0.0 
1.10168 -0.0720472 0.0 
1.09665 0.106775 0.0 
0.97649 -0.00287528 0.0 
0.876344 0.183496 0.0 
0.996598 0.0146298 0.0 
0.99693 0.0112713 0.0 
0.889596 -0.0411239 0.0 
0.978617 0.0260202 0.0 
1.1631 -0.227491 0.0 
0.636265 0.0177348 0.0 
0.941872 0.0418486 0.0 
1.01628 0.303497 0.0 
0.906524 0.353671 0.0 
0.838677 0.132473 0.0 
1.15987 0.0785681 0.0 
0.153337 0.133865 0.0 
1.01656 0.290494 0.0 
1.06452 0.266996 0.0 
1.03917 -0.00640513 0.0 
0.938592 0.094699 0.0 
0.0424614 0.00700274 0.0 
1.17521 0.149938 0.0 
0.977713 0.0321487 0.0 
0.909679 0.122526 0.0 
1.12488 0.221451 0.0 
0.851049 0.124667 0.0 
-0.0453115 -0.0182074 0.0 
0.978813 0.030269 0.0 
0.924901 0.0740009 0.0 
0.73955 0.140793 0.0 
0.979657 0.0269908 0.0 
0.911398 0.150658 0.0 
0.995848 0.01268 0.0 
0.902844 0.101885 0.0 
0.979147 0.0281682 0.0 
0.853668 0.0558979 0.0 
0.830756 0.0226967 0.0 
0.903836 0.164723 0.0 
0.998745 0.011524 0.0 
0.968861 -0.00462223 0.0 
0.980122 0.0253219 0.0 
0.999067 0.0177994 0.0 
0.962696 -0.00465559 0.0 
0.961671 -0.00834458 0.0 
0.966158 -0.00410859 0.0 
0.938115 -0.0414928 0.0 
0.925699 0.0584405 0.0 
0.926259 0.0885217 0.0 
1.04121 -0.00180267 0.0 
0.989715 0.032307 0.0 
1.06491 0.0279768 0.0 
0.99917 0.014687 0.0 
1.07837 -0.00777086 0.0 
1.00528 0.0806352 0.0 
0.949621 0.0134452 0.0 
0.976858 0.0273336 0.0 
1.04914 -0.161535 0.0 
1.09936 0.244463 0.0 
1.12347 0.232864 0.0 
0.933231 -0.0321834 0.0 
0.999064 0.0142103 0.0 
0.951118 0.0110893 0.0 
0.996343 0.0137728 0.0 
0.979514 0.00549735 0.0 
1.05539 0.00921162 0.0 
1.04794 -0.172211 0.0 