<VTKFile type="UnstructuredGrid" version="0.1" byte_order="LittleEndian">
  <UnstructuredGrid>
    <Piece NumberOfPoints="9712" NumberOfCells="19403">
      <Points>
        <DataArray type = "Float64" NumberOfComponents="3" format="ascii">
-5 -7 0.0 
15.5 -7 0.0 
15.5 7 0.0 
-5 7 0.0 
-1.6546 1.77742 0.0 
-2.13867 1.86504 0.0 
-1.83467 1.79143 0.0 
1.47969 -2.21179 0.0 
1.36003 -2.38618 0.0 
1.4346 -2.45048 0.0 
-2.04214 1.94165 0.0 
-0.20425 1.17338 0.0 
-2.07648 1.81911 0.0 
-2.00827 1.89081 0.0 
-2.05492 1.98872 0.0 
0.192693 0.536219 0.0 
0.154285 1.75648 0.0 
1.1379 -1.62057 0.0 
-2.11226 1.96977 0.0 
-1.74119 1.75327 0.0 
1.14499 -1.58184 0.0 
-1.94373 2.37229 0.0 
1.50619 -0.664239 0.0 
1.99658 -1.76705 0.0 
1.7229 -1.18344 0.0 
-1.97759 2.52091 0.0 
-0.768046 0.387136 0.0 
1.32657 -1.43969 0.0 
1.90142 0.24821 0.0 
-0.93264 1.51038 0.0 
1.09557 0.967223 0.0 
0.627111 0.757352 0.0 
-2.05707 2.31394 0.0 
1.34027 -2.45136 0.0 
-0.725097 0.397516 0.0 
-0.666094 2.30428 0.0 
-0.73829 -0.279965 0.0 
1.73336 -1.08822 0.0 
1.88466 -1.24421 0.0 
1.50539 -1.23752 0.0 
1.65978 -1.30759 0.0 
-0.0409718 0.542603 0.0 
1.6005 -1.1227 0.0 
1.78439 -0.941488 0.0 
1.86015 -1.54236 0.0 
1.49308 -1.40058 0.0 
2.34892 -1.47149 0.0 
2.13832 -1.3246 0.0 
1.73061 0.751302 0.0 
-0.580328 0.526903 0.0 
1.51013 -2.1595 0.0 
-1.65424 3.45779 0.0 
-1.51397 2.46352 0.0 
1.42773 -2.17867 0.0 
0.304353 0.497878 0.0 
2.24628 0.228293 0.0 
1.51258 -2.27933 0.0 
-1.60346 3.44299 0.0 
-1.71408 2.36227 0.0 
2.17421 0.530405 0.0 
2.42 0.316451 0.0 
-1.63642 3.31911 0.0 
2.53942 -0.995036 0.0 
0.750003 0.810439 0.0 
2.04736 0.40918 0.0 
1.19615 -1.50641 0.0 
2.13474 0.494063 0.0 
0.547924 0.306722 0.0 
-0.2059 0.361394 0.0 
2.2127 0.547693 0.0 
1.41442 -0.597105 0.0 
1.52233 -1.46252 0.0 
-1.84114 2.53924 0.0 
-5 -2.53894 0.0 
2.32127 0.371156 0.0 
-1.69186 3.33379 0.0 
-0.964779 0.566136 0.0 
-1.81311 2.48387 0.0 
-1.78557 3.38304 0.0 
1.48278 0.914136 0.0 
2.51531 -1.89689 0.0 
1.20982 -0.330514 0.0 
0.408434 0.319657 0.0 
0.95023 0.60993 0.0 
-0.752349 0.440796 0.0 
-0.998248 0.564019 0.0 
-1.73165 3.36299 0.0 
1.24353 -1.49063 0.0 
0.942095 0.817189 0.0 
-1.77816 2.47096 0.0 
2.48183 -1.95479 0.0 
1.33574 -1.77854 0.0 
0.823335 1.12085 0.0 
-0.36308 0.598468 0.0 
0.745466 0.783414 0.0 
-1.88344 2.8521 0.0 
-1.79794 3.52221 0.0 
3.0087 0.272815 0.0 
-1.81486 2.66014 0.0 
0.375911 -0.403668 0.0 
-0.68323 0.487288 0.0 
-0.34187 -0.274923 0.0 
-0.293875 -0.201368 0.0 
1.61018 -1.767 0.0 
-0.448275 -0.347267 0.0 
-1.08687 0.352015 0.0 
1.29257 -1.76345 0.0 
1.67658 -1.49551 0.0 
1.19193 0.533009 0.0 
1.21582 -1.91654 0.0 
-0.36438 -0.346225 0.0 
-0.92534 0.330346 0.0 
2.3836 0.287756 0.0 
1.68841 0.639887 0.0 
1.59001 -1.89458 0.0 
1.14818 -1.92143 0.0 
1.28996 -2.19426 0.0 
1.37603 -1.8763 0.0 
1.23834 -2.09141 0.0 
1.11702 -2.06287 0.0 
0.691829 0.463808 0.0 
1.46523 -2.03459 0.0 
-0.123547 0.424486 0.0 
-1.3311 2.12174 0.0 
1.08169 -1.90074 0.0 
1.87975 -2.15971 0.0 
1.10131 -1.78593 0.0 
1.13722 0.534683 0.0 
1.42465 -1.59031 0.0 
-1.45435 2.47344 0.0 
1.41998 -1.98207 0.0 
0.463917 1.8787 0.0 
-1.72896 2.89571 0.0 
1.12419 -1.84975 0.0 
1.59054 -1.20634 0.0 
0.46124 0.621002 0.0 
0.806438 -1.00204 0.0 
2.1804 0.349761 0.0 
2.21142 -1.6418 0.0 
1.10152 -0.274558 0.0 
2.23388 0.387302 0.0 
0.137769 0.567007 0.0 
1.88736 0.267391 0.0 
1.26821 -1.94267 0.0 
0.21033 -0.605707 0.0 
2.61094 -1.50046 0.0 
0.819837 0.743337 0.0 
-1.4303 2.07799 0.0 
1.82013 0.322126 0.0 
-1.47649 2.2099 0.0 
1.15745 -0.274223 0.0 
-1.81198 2.24994 0.0 
2.34337 -1.67775 0.0 
-1.13329 1.37877 0.0 
-0.828215 1.05292 0.0 
2.46752 -1.53452 0.0 
-1.69915 2.18529 0.0 
-0.404416 -0.286271 0.0 
-1.23501 1.31766 0.0 
2.11757 -1.50659 0.0 
-1.08535 1.28274 0.0 
2.58548 -1.70783 0.0 
0.24729 -0.572345 0.0 
-1.66963 2.25319 0.0 
1.58322 -1.62308 0.0 
-0.367923 -0.306026 0.0 
0.391521 1.44485 0.0 
1.88977 -2.46319 0.0 
1.5943 -1.53613 0.0 
-0.357143 -0.23651 0.0 
0.82621 0.80563 0.0 
-1.59261 2.31884 0.0 
-0.47244 -0.307516 0.0 
-0.40334 -0.326688 0.0 
-2.00063 2.11543 0.0 
1.55514 -1.95078 0.0 
-1.40431 2.26352 0.0 
-0.0265928 0.573714 0.0 
1.17093 1.10579 0.0 
-1.77907 2.22111 0.0 
0.682788 0.329642 0.0 
-0.54475 2.15572 0.0 
-0.288592 0.289433 0.0 
-1.43199 2.16349 0.0 
-1.45029 2.25134 0.0 
1.5535 -1.79992 0.0 
-1.06406 1.08381 0.0 
1.72954 1.44966 0.0 
0.582806 0.515814 0.0 
0.582876 -0.679913 0.0 
1.32351 -0.355916 0.0 
-0.47505 0.577092 0.0 
-0.371167 0.227715 0.0 
1.52235 -1.8529 0.0 
-0.429822 -0.244811 0.0 
-0.53237 -0.24648 0.0 
-0.393983 -0.210364 0.0 
0.652895 0.317361 0.0 
1.55812 -1.70765 0.0 
1.63021 0.325622 0.0 
0.442731 0.358729 0.0 
1.22925 -1.85192 0.0 
1.43517 -1.79082 0.0 
1.39317 -1.6984 0.0 
1.62965 0.295952 0.0 
0.905462 0.793465 0.0 
1.04036 -1.64811 0.0 
2.1131 -1.72466 0.0 
-0.743911 0.369492 0.0 
1.14427 -1.99314 0.0 
1.26033 -2.0209 0.0 
-1.70955 2.07308 0.0 
0.910023 -1.62976 0.0 
-0.313059 -0.0954838 0.0 
-1.77334 2.3988 0.0 
-0.311958 -0.24042 0.0 
2.53315 0.325608 0.0 
-0.273728 -0.226719 0.0 
-0.646401 0.379627 0.0 
1.52426 0.616074 0.0 
2.21703 -1.79499 0.0 
2.71108 0.312216 0.0 
0.759924 1.093 0.0 
-1.69271 2.12368 0.0 
0.255794 0.540969 0.0 
0.0534699 0.562158 0.0 
-1.5679 2.22408 0.0 
-1.66906 2.45165 0.0 
-1.51895 2.09449 0.0 
2.16948 0.408238 0.0 
-0.818806 0.680638 0.0 
-0.826868 0.642087 0.0 
0.519855 0.276992 0.0 
-0.716682 1.18602 0.0 
-0.649974 -0.148775 0.0 
0.457368 0.256619 0.0 
0.517407 0.248194 0.0 
0.327129 0.39802 0.0 
0.533249 -0.878832 0.0 
-0.870735 0.634904 0.0 
1.19219 1.07557 0.0 
2.35922 0.366028 0.0 
-1.66911 3.66723 0.0 
-0.857603 1.54934 0.0 
-0.379189 2.30131 0.0 
-0.941007 1.36523 0.0 
-1.58662 2.49682 0.0 
-0.545297 0.352587 0.0 
0.327944 -0.744683 0.0 
-0.312756 0.524741 0.0 
-0.107843 0.506233 0.0 
2.13378 -2.36584 0.0 
1.52689 0.686953 0.0 
-0.119983 0.327909 0.0 
1.02161 -1.53072 0.0 
1.51507 0.39695 0.0 
-0.674484 1.02605 0.0 
-0.564724 -0.148435 0.0 
0.409388 0.290913 0.0 
0.252349 0.30842 0.0 
-1.09282 1.45998 0.0 
1.45674 -1.54484 0.0 
-0.266777 0.782169 0.0 
0.91327 -0.874389 0.0 
1.01208 1.13309 0.0 
-0.897136 1.35063 0.0 
-0.846484 0.489353 0.0 
1.47563 0.663768 0.0 
-1.22282 2.05021 0.0 
0.348906 0.416714 0.0 
1.41913 0.964648 0.0 
0.933289 -0.839038 0.0 
-1.85066 1.40221 0.0 
0.142477 1.99435 0.0 
-0.717809 0.341194 0.0 
-2.21177 1.41584 0.0 
0.396571 0.350929 0.0 
1.25171 -1.60721 0.0 
0.736798 0.393502 0.0 
-0.661427 0.19031 0.0 
2.18751 -2.32769 0.0 
-1.00908 1.6747 0.0 
2.21416 -2.07269 0.0 
-0.779194 0.642011 0.0 
-1.02312 1.3939 0.0 
2.08809 -2.24876 0.0 
-5 -4.48794 0.0 
1.61792 -1.46215 0.0 
-0.974627 1.38947 0.0 
1.81166 -2.48446 0.0 
-1.03635 1.47474 0.0 
0.869004 -1.74424 0.0 
0.956579 -1.78598 0.0 
1.07495 0.540689 0.0 
-1.08005 1.37763 0.0 
0.914755 -0.803058 0.0 
0.611759 -0.305322 0.0 
1.70043 -1.41356 0.0 
0.75708 -0.631542 0.0 
1.21215 1.01979 0.0 
-0.586902 0.440014 0.0 
1.9251 -2.56336 0.0 
-1.58261 1.91091 0.0 
-0.746541 1.26087 0.0 
-1.49915 1.13657 0.0 
-1.46675 0.971536 0.0 
-1.05881 0.930935 0.0 
0.71826 0.415078 0.0 
-0.701697 0.526982 0.0 
-1.56194 2.05157 0.0 
1.15988 0.991244 0.0 
1.38676 0.949615 0.0 
-1.61697 2.02689 0.0 
1.13748 -0.357331 0.0 
-1.8456 2.04561 0.0 
0.253686 -0.756334 0.0 
-1.53603 1.86509 0.0 
-1.43465 0.924137 0.0 
-1.00273 1.27416 0.0 
-1.03063 1.5132 0.0 
-1.32483 1.94769 0.0 
-0.965552 1.61445 0.0 
-0.239859 -0.245939 0.0 
-5 3.01776 0.0 
-5 -0.248741 0.0 
0.517491 1.87079 0.0 
-1.18776 1.8875 0.0 
2.27458 0.36201 0.0 
1.9794 0.331487 0.0 
0.503086 0.510306 0.0 
1.26387 -0.370702 0.0 
1.24483 0.550197 0.0 
1.12871 0.979556 0.0 
-1.48659 1.83259 0.0 
1.0672 0.958366 0.0 
-1.16856 1.61214 0.0 
-0.218637 -0.230696 0.0 
-5 1.81431 0.0 
1.37014 1.04658 0.0 
0.0950623 0.557621 0.0 
-1.23613 1.67303 0.0 
0.953731 -0.709843 0.0 
2.07568 -1.85385 0.0 
2.10836 -1.82014 0.0 
-0.994952 1.33552 0.0 
-1.86986 1.52312 0.0 
0.515812 0.447542 0.0 
0.842446 0.992035 0.0 
-1.42353 1.8223 0.0 
2.091 0.354014 0.0 
-0.937663 0.401428 0.0 
-1.69305 1.41997 0.0 
-1.82465 1.55127 0.0 
2.15192 0.384657 0.0 
-1.17972 1.37998 0.0 
-0.718866 -0.0130647 0.0 
-0.927867 0.290435 0.0 
1.56509 0.300406 0.0 
-5 -3.04052 0.0 
9.98027 -7 0.0 
0.176009 0.694641 0.0 
0.597997 -0.559941 0.0 
-0.546583 0.4849 0.0 
0.602022 -0.657834 0.0 
2.17737 0.379672 0.0 
1.89809 0.287017 0.0 
-1.58883 1.35796 0.0 
-1.2284 1.37063 0.0 
-1.43937 1.35342 0.0 
-1.59664 1.47263 0.0 
0.577431 -0.368705 0.0 
1.5263 -1.51093 0.0 
0.479666 0.796509 0.0 
0.894995 1.01463 0.0 
2.22312 0.363016 0.0 
-0.320562 0.726481 0.0 
-1.30188 2.41386 0.0 
0.43802 0.434693 0.0 
-0.761697 0.762024 0.0 
1.45688 -1.49591 0.0 
-0.65072 0.676835 0.0 
1.6097 -1.41509 0.0 
2.25768 0.399237 0.0 
1.85518 0.299709 0.0 
2.14618 0.290757 0.0 
2.25222 0.371677 0.0 
-1.93063 2.91367 0.0 
1.52717 0.319618 0.0 
1.67964 -1.62237 0.0 
1.35962 -0.439169 0.0 
1.63007 -1.54335 0.0 
-5 -0.764504 0.0 
-1.61377 2.62271 0.0 
1.73865 -1.57725 0.0 
-0.908306 1.23669 0.0 
1.60766 0.330292 0.0 
1.82509 -1.63054 0.0 
1.90521 0.312457 0.0 
1.98719 -1.6488 0.0 
-0.528791 0.39225 0.0 
1.94978 -2.39003 0.0 
-0.472559 0.718465 0.0 
-1.28058 2.26572 0.0 
0.881581 -0.556282 0.0 
2.26369 0.42542 0.0 
0.917309 -1.69962 0.0 
0.853954 -1.60945 0.0 
1.30086 -0.404316 0.0 
1.99565 -2.46852 0.0 
1.49445 -1.47573 0.0 
1.68285 0.863315 0.0 
2.03074 -2.37549 0.0 
2.52279 -0.506167 0.0 
2.56049 -1.76899 0.0 
-1.52889 2.56597 0.0 
2.81136 -0.570221 0.0 
1.3688 -1.46095 0.0 
1.29524 -0.373946 0.0 
-0.350504 0.671928 0.0 
-0.590282 0.564035 0.0 
-0.054366 2.16706 0.0 
1.50819 1.22548 0.0 
-0.548222 0.453941 0.0 
2.19936 -2.5207 0.0 
12.2704 -7 0.0 
1.6811 -1.36761 0.0 
-0.449261 0.559535 0.0 
0.537017 -0.527614 0.0 
-0.00733391 0.553304 0.0 
0.494109 -0.356396 0.0 
-0.7939 0.0827441 0.0 
0.39888 0.467333 0.0 
-1.04288 1.34095 0.0 
0.605019 1.02824 0.0 
0.847559 0.374727 0.0 
1.00336 0.618307 0.0 
2.1955 0.399186 0.0 
0.656973 0.401158 0.0 
-0.998431 2.73564 0.0 
[...]
<PointData>
  <DataArray type = "Float64" Name="VitesseP1" NumberOfComponents="3" format="ascii">
1 0 0.0 
1.09378 0 0.0 
1.03589 0 0.0 
1 0 0.0 
0.994616 0.0157152 0.0 
0.996913 0.0110552 0.0 
0.995494 0.0135272 0.0 
1.04247 -0.00397862 0.0 
1.04447 -0.00502187 0.0 
1.0499 -0.0046225 0.0 
0.997756 0.0119812 0.0 
0.986576 0.0727221 0.0 
0.996606 0.0113857 0.0 
0.996818 0.0121721 0.0 
0.998911 0.0119836 0.0 
0.991925 0.21845 0.0 
1.02006 0.0535365 0.0 
1.04973 -0.026371 0.0 
0.998835 0.0114061 0.0 
0.995028 0.014452 0.0 
1.05506 -0.0273403 0.0 
0.998854 0.0133049 0.0 
1.16006 -0.0267383 0.0 
1.04706 0.0117397 0.0 
1.06403 -0.00256399 0.0 
0.998819 0.0128864 0.0 
0.944452 0.00867647 0.0 
1.06345 -0.0224482 0.0 
0.0645153 0.0023349 0.0 
0.9888 0.0313216 0.0 
1.14341 0.0693288 0.0 
1.10984 0.143116 0.0 
0.998845 0.0123142 0.0 
1.03431 -0.0181611 0.0 
0.941289 0.0122706 0.0 
1.00542 0.0302359 0.0 
0.936761 -0.0514921 0.0 
1.08517 -0.00243811 0.0 
1.05679 0.00817527 0.0 
1.05421 -0.0161409 0.0 
1.05704 -0.00558464 0.0 
0.926663 0.151778 0.0 
1.07549 -0.0117252 0.0 
1.12693 0.000828559 0.0 
1.06889 0.0065498 0.0 
1.06388 -0.0142611 0.0 
1.06399 0.0340837 0.0 
1.05777 0.0238472 0.0 
1.20231 0.0322205 0.0 
0.939444 0.0356444 0.0 
1.04119 -0.00396319 0.0 
1.00249 0.0122163 0.0 
0.999806 0.0174472 0.0 
1.04062 -0.00555714 0.0 
1.03725 0.243579 0.0 
0.0356946 -0.000269619 0.0 
1.04422 -0.00293652 0.0 
1.00271 0.0126141 0.0 
0.999082 0.0155549 0.0 
1.15899 0.00275263 0.0 
0.101853 -0.0049727 0.0 
1.00238 0.0128905 0.0 
1.09757 0.0604033 0.0 
1.1229 0.121812 0.0 
0.520622 0.0097159 0.0 
1.06113 -0.027288 0.0 
1.05488 0.00567614 0.0 
0.553912 0.134557 0.0 
0.862547 0.085501 0.0 
1.18446 -0.00262783 0.0 
1.20296 -0.0385328 0.0 
1.06742 -0.0118593 0.0 
0.999033 0.0140215 0.0 
1 0 0.0 
0.278211 -0.00907274 0.0 
1.00215 0.0124717 0.0 
0.968074 0.0105646 0.0 
0.999055 0.0143769 0.0 
1.00177 0.0116598 0.0 
1.17545 0.0380848 0.0 
1.03807 0.0232129 0.0 
0.749663 -0.0407455 0.0 
0.947331 0.263247 0.0 
1.17312 0.116788 0.0 
0.946089 0.01422 0.0 
0.96989 0.00885905 0.0 
1.00205 0.0120876 0.0 
1.06251 -0.0255066 0.0 
1.14383 0.0988851 0.0 
0.99912 0.0147245 0.0 
1.04462 0.0277557 0.0 
1.04264 -0.0147654 0.0 
1.09752 0.0803594 0.0 
0.935383 0.0701181 0.0 
1.12518 0.125965 0.0 
0.999867 0.0128119 0.0 
1.00216 0.0108882 0.0 
-0.0170577 -0.146205 0.0 
0.999224 0.0139529 0.0 
1.19071 -0.234745 0.0 
0.943979 0.0230034 0.0 
0.918582 -0.0885234 0.0 
0.915371 -0.0746168 0.0 
1.04712 -0.0042495 0.0 
0.924203 -0.0784425 0.0 
0.967128 -0.0082009 0.0 
1.04232 -0.0167277 0.0 
1.06926 -0.00326175 0.0 
1.1956 0.0855871 0.0 
1.03785 -0.0162351 0.0 
0.919894 -0.0887927 0.0 
0.954793 -0.00369268 0.0 
0.0600583 0.00503194 0.0 
1.20428 0.0393564 0.0 
1.044 -0.00403821 0.0 
1.03628 -0.0180787 0.0 
1.03824 -0.00819517 0.0 
1.04175 -0.0116472 0.0 
1.03551 -0.0120347 0.0 
1.03256 -0.0170537 0.0 
1.1628 0.185167 0.0 
1.03918 -0.00650724 0.0 
0.877063 0.126094 0.0 
0.99908 0.020928 0.0 
1.03515 -0.020634 0.0 
1.04127 0.00503051 0.0 
1.0374 -0.023033 0.0 
1.19526 0.0929284 0.0 
1.06134 -0.0147938 0.0 
1.00005 0.0180714 0.0 
1.03918 -0.00860714 0.0 
1.03009 0.0469501 0.0 
1.00073 0.0138481 0.0 
1.037 -0.0206707 0.0 
1.05893 -0.0111057 0.0 
1.0872 0.189797 0.0 
1.0683 -0.0736486 0.0 
0.128938 0.0125368 0.0 
1.05488 0.0227565 0.0 
0.45505 -0.0392399 0.0 
0.371594 -0.00174816 0.0 
0.977382 0.196832 0.0 
0.0693292 -0.00495879 0.0 
1.03792 -0.014053 0.0 
1.03034 -0.160834 0.0 
1.05177 0.0497609 0.0 
1.13938 0.121938 0.0 
0.998786 0.0195405 0.0 
0.0781152 0.00533355 0.0 
0.998951 0.018616 0.0 
0.408428 -0.0172194 0.0 
0.998766 0.0146462 0.0 
1.04662 0.02751 0.0 
0.985195 0.0245584 0.0 
0.973446 0.034395 0.0 
1.05701 0.0386187 0.0 
0.998597 0.0158941 0.0 
0.922594 -0.0796679 0.0 
0.984196 0.020972 0.0 
1.0679 0.020438 0.0 
0.981624 0.0254198 0.0 
1.03369 0.034342 0.0 
1.03963 -0.171325 0.0 
0.998882 0.0161843 0.0 
1.05917 -0.00682532 0.0 
0.919997 -0.0860475 0.0 
1.0347 0.0698693 0.0 
1.04753 -0.00186508 0.0 
1.06789 -0.00722752 0.0 
0.916249 -0.0818344 0.0 
1.1329 0.113769 0.0 
0.999194 0.0169656 0.0 
0.927496 -0.0728702 0.0 
0.922038 -0.0827506 0.0 
0.998629 0.0127097 0.0 
1.04165 -0.00478723 0.0 
0.999446 0.0194418 0.0 
0.938743 0.151748 0.0 
1.13199 0.0505452 0.0 
0.998708 0.0150034 0.0 
0.629966 0.110677 0.0 
1.0061 0.0343199 0.0 
0.863136 0.0454256 0.0 
0.998911 0.0193329 0.0 
0.999252 0.0188616 0.0 
1.04532 -0.006204 0.0 
0.973973 0.023916 0.0 
1.07434 -0.0418882 0.0 
1.14089 0.200604 0.0 
1.1084 -0.129337 0.0 
0.867623 -0.0310331 0.0 
0.938105 0.0519218 0.0 
0.874833 0.0163603 0.0 
1.04417 -0.00684034 0.0 
0.923862 -0.0732216 0.0 
0.933012 -0.0627064 0.0 
0.918582 -0.0743591 0.0 
0.577988 0.110896 0.0 
1.05042 -0.0070264 0.0 
0.110111 0.0164726 0.0 
1.03596 0.265412 0.0 
1.03938 -0.017149 0.0 
1.04409 -0.010862 0.0 
1.04887 -0.0141707 0.0 
0.0907701 0.024592 0.0 
1.14293 0.105525 0.0 
1.04381 -0.0292651 0.0 
1.04811 0.0170136 0.0 
0.941339 0.00851266 0.0 
1.0338 -0.0169634 0.0 
1.03584 -0.0127239 0.0 
0.998734 0.0157767 0.0 
1.04092 -0.034531 0.0 
0.898347 -0.0655959 0.0 
0.999049 0.0148929 0.0 
0.909472 -0.0858549 0.0 
0.167217 -0.0174545 0.0 
0.887588 -0.0840389 0.0 
0.932516 0.0160431 0.0 
1.20183 0.0501289 0.0 
1.04395 0.0203938 0.0 
0.242214 -0.0323326 0.0 
1.09682 0.0879318 0.0 
0.99855 0.0159786 0.0 
1.01861 0.223449 0.0 
0.95126 0.177524 0.0 
0.998883 0.0174253 0.0 
0.999327 0.0158347 0.0 
0.998752 0.0182455 0.0 
0.516023 0.00227156 0.0 
0.96764 0.0250646 0.0 
0.965336 0.0225677 0.0 
0.412456 0.135769 0.0 
0.976526 0.0408516 0.0 
0.940033 -0.0445348 0.0 
0.299932 0.101336 0.0 
0.374067 0.1845 0.0 
1.06244 0.297227 0.0 
1.06872 -0.103195 0.0 
0.9671 0.0194807 0.0 
1.13958 0.0509486 0.0 
0.264045 -0.00971699 0.0 
1.00074 0.0114872 0.0 
0.990414 0.0336427 0.0 
1.0096 0.0347101 0.0 
0.983813 0.0310192 0.0 
0.999635 0.0165636 0.0 
0.918614 0.0213079 0.0 
1.05827 -0.131773 0.0 
0.918829 0.0757169 0.0 
0.908494 0.132102 0.0 
1.04713 0.0138157 0.0 
1.19359 0.0470276 0.0 
0.829619 0.116765 0.0 
1.05557 -0.0340799 0.0 
0.541431 0.0227266 0.0 
0.975772 0.0434966 0.0 
0.932404 -0.0504221 0.0 
0.700055 0.194647 0.0 
0.898347 0.339137 0.0 
0.987305 0.026214 0.0 
1.06564 -0.0139065 0.0 
0.967206 0.0863564 0.0 
1.11269 -0.0770866 0.0 
1.11228 0.0633991 0.0 
0.983193 0.0326722 0.0 
0.956213 0.0120325 0.0 
1.19393 0.0519661 0.0 
0.99918 0.0229349 0.0 
1.07676 0.284329 0.0 
1.16836 0.0393368 0.0 
1.12311 -0.0781175 0.0 
0.994088 0.0100803 0.0 
1.01845 0.0450994 0.0 
0.937345 0.00740149 0.0 
0.99723 0.00841098 0.0 
1.0172 0.284672 0.0 
1.05501 -0.0220096 0.0 
0.996856 0.151957 0.0 
0.925002 -0.00668763 0.0 
1.03706 0.032533 0.0 
0.992851 0.0286671 0.0 
1.03735 0.0171371 0.0 
0.962747 0.0257611 0.0 
0.985035 0.0282174 0.0 
1.03726 0.0080569 0.0 
1 0 0.0 
1.06854 -0.00666591 0.0 
0.984761 0.0298665 0.0 
1.04561 -0.0011865 0.0 
0.987601 0.0279974 0.0 
1.03134 -0.0316167 0.0 
1.03355 -0.0277476 0.0 
1.19264 0.1019 0.0 
0.984827 0.0262465 0.0 
1.12874 -0.0827265 0.0 
0.912244 -0.146851 0.0 
1.06694 -0.00249406 0.0 
1.12707 -0.115205 0.0 
1.14818 0.0535706 0.0 
0.931236 0.0273069 0.0 
1.03667 0.00134407 0.0 
0.995957 0.0171664 0.0 
0.979785 0.0392035 0.0 
0.984069 0.0110949 0.0 
0.995501 0.0103474 0.0 
0.990064 0.021243 0.0 
1.08746 0.169083 0.0 
0.948521 0.0245488 0.0 
0.998725 0.0176217 0.0 
1.14663 0.0609692 0.0 
1.16689 0.0430087 0.0 
0.99847 0.0168694 0.0 
0.928727 -0.0575835 0.0 
0.999093 0.0141675 0.0 
1.04243 -0.128527 0.0 
0.995054 0.0177603 0.0 
1.00021 0.0109991 0.0 
0.980762 0.0283092 0.0 
0.988854 0.028236 0.0 
0.996599 0.0213362 0.0 
0.991931 0.030061 0.0 
0.881931 -0.105837 0.0 
1 0 0.0 
1 0 0.0 
1.03205 0.0463347 0.0 
0.995276 0.0239802 0.0 
0.212709 -0.0020687 0.0 
0.0577418 0.015219 0.0 
1.11646 0.217733 0.0 
0.957034 -0.0458423 0.0 
1.20029 0.0794426 0.0 
1.14511 0.0650096 0.0 
0.994485 0.0184678 0.0 
1.1418 0.0729434 0.0 
0.991842 0.0245369 0.0 
0.948037 -0.164192 0.0 
1 0 0.0 
1.15885 0.0365357 0.0 
0.961542 0.190157 0.0 
0.992785 0.0230446 0.0 
1.14315 -0.0857232 0.0 
1.04403 0.014165 0.0 
1.0444 0.0158537 0.0 
0.982884 0.0289672 0.0 
0.995358 0.0113206 0.0 
1.12758 0.232934 0.0 
1.11882 0.0919273 0.0 
0.994236 0.0195184 0.0 
0.140246 0.0111548 0.0 
0.958459 0.00110716 0.0 
0.992117 0.0121183 0.0 
0.995286 0.0120307 0.0 
0.335763 0.00671156 0.0 
0.985543 0.0231698 0.0 
0.948413 -0.0294259 0.0 
0.953589 -0.00691137 0.0 
0.094951 -0.0110673 0.0 
1 0 0.0 
1.07198 0 0.0 
1.00775 0.166446 0.0 
1.11941 -0.146548 0.0 
0.931987 0.035803 0.0 
1.11228 -0.130639 0.0 
0.304636 0.00578001 0.0 
0.0808069 -0.00175595 0.0 
0.989661 0.012848 0.0 
0.985677 0.0216865 0.0 
0.987461 0.0159837 0.0 
0.99168 0.0142725 0.0 
1.10733 -0.173782 0.0 
1.06758 -0.0109508 0.0 
1.07979 0.147684 0.0 
1.12187 0.0849138 0.0 
0.210703 0.00521195 0.0 
0.956724 0.0792012 0.0 
1.00056 0.0201455 0.0 
1.11058 0.257703 0.0 
0.972295 0.0324914 0.0 
1.06676 -0.0148293 0.0 
0.959317 0.0378279 0.0 
1.0664 -0.00766092 0.0 
0.461966 -0.00682068 0.0 
0.0806855 0.00902089 0.0 
0.0642482 0.013133 0.0 
0.271262 0.000828808 0.0 
0.999816 0.0122464 0.0 
0.0816388 0.00112288 0.0 
1.05991 -0.00233028 0.0 
1.1583 -0.0433911 0.0 
1.0679 -0.00536499 0.0 
1 0 0.0 
0.999757 0.0158705 0.0 
1.06595 0.0004078 0.0 
0.979147 0.0318973 0.0 
0.0961808 0.00697728 0.0 
1.05969 0.00464499 0.0 
0.0781733 0.000852715 0.0 
1.05699 0.0122121 0.0 
0.920305 0.0279917 0.0 
1.04239 2.71843e-05 0.0 
0.95738 0.058273 0.0 
0.999931 0.021136 0.0 
1.19535 -0.110687 0.0 
0.651966 -0.010348 0.0 
1.0355 -0.0316353 0.0 
1.04142 -0.0371024 0.0 
1.06672 -0.0452104 0.0 
1.05545 0.00987682 0.0 
1.0673 -0.0131783 0.0 
1.19088 0.0245976 0.0 
1.04193 0.0138547 0.0 
1.24686 0.0802634 0.0 
1.03539 0.0296418 0.0 
0.99996 0.0169144 0.0 
1.18314 0.106042 0.0 
1.06473 -0.0199917 0.0 
0.969862 -0.0459617 0.0 
0.947776 0.0741513 0.0 
0.944224 0.0373069 0.0 
1.01433 0.0414712 0.0 
1.13778 0.00022886 0.0 
0.928886 0.0326503 0.0 
1.00531 -0.00629606 0.0 
1.06936 0 0.0 
1.06331 -0.00386038 0.0 
0.933824 0.0544119 0.0 
1.13912 -0.164106 0.0 
0.935519 0.160719 0.0 
1.10192 -0.195192 0.0 
0.952522 -0.0201688 0.0 
1.08719 0.251537 0.0 
0.983349 0.0272719 0.0 
1.08791 0.105372 0.0 
0.784408 0.101644 0.0 
1.17577 0.108039 0.0 
0.451736 0.000502916 0.0 
1.07407 0.187076 0.0 
1.00403 0.0212196 0.0 
1.05674 0.0150667 0.0 
1.04301 0.0084681 0.0 
1.04769 -0.00125623 0.0 
1.04622 -0.000141961 0.0 
0.058226 0.0150065 0.0 
1.04196 0.00180252 0.0 
-0.0725427 0.0246449 0.0 
1.04536 -0.0402554 0.0 
1.00417 0.034805 0.0 
1.04467 0.00910248 0.0 
1 0 0.0 
0.983332 0.0261082 0.0 
1.19336 0.0978398 0.0 
0.745553 -0.0390086 0.0 
0.99961 0.015313 0.0 
0.991934 0.0388186 0.0 
1.05018 0.00987238 0.0 
1.055 0.00495569 0.0 
0.939672 0.18942 0.0 
0.776861 0.130742 0.0 
1.00437 0.0182928 0.0 
1.13931 0.125599 0.0 
0.999506 0.243832 0.0 
0.999121 0.0119512 0.0 
0.986067 0.0290224 0.0 
1.0514 0.000837245 0.0 
0.937812 0.124912 0.0 
0.145294 0.0135975 0.0 
1.05041 0.0029925 0.0 
0.172507 0.098757 0.0 
1.05057 -0.00126396 0.0 
1.00318 -0.0107718 0.0 
1.01656 0.046693 0.0 
1.11234 -0.0460836 0.0 
1.04715 0.00196374 0.0 
0.957089 -0.00630361 0.0 
0.329662 0.0135669 0.0 
1.06342 -0.0233519 0.0 
0.946623 -0.00149436 0.0 
0.999816 0.0150067 0.0 
1.06089 -0.0282782 0.0 
0.941808 0.0658333 0.0 
1.19782 -0.0460957 0.0 
0.23342 -0.010765 0.0 
0.584682 -0.0145611 0.0 
0.941129 -0.00467998 0.0 
0.964198 0.27281 0.0 
0.250048 0.0478562 0.0 
0.996278 0.316346 0.0 
0.920014 -0.00230333 0.0 
1.0789 -0.0435974 0.0 
0.678271 0.00743499 0.0 
0.355881 0.116251 0.0 
1.10347 0.0711927 0.0 
0.998719 0.0120582 0.0 
0.527634 0.00867683 0.0 
0.132923 0.0367239 0.0 
0.914405 -0.0434692 0.0 
0.739585 -0.0231234 0.0 
1.0319 0.0462091 0.0 
0.998789 0.0116543 0.0 
1.02599 -0.0983779 0.0 
1.1128 -0.0349398 0.0 
1.17643 0.0271021 0.0 
0.0807442 0.00266984 0.0 
0.936265 -0.0577591 0.0 
1.03487 0.0431376 0.0 
1.06739 -0.00881129 0.0 
0.938099 -0.00907625 0.0 
0.0713434 0.0139534 0.0 
0.998814 0.0125755 0.0 
1.17488 0.0316397 0.0 
1.05929 -0.0274981 0.0 
0.963555 0.216549 0.0 
1.0532 0.0154562 0.0 
1.069 -0.000467995 0.0 
1.06912 0.00434261 0.0 
0.954559 0.037593 0.0 
1.06126 -0.025277 0.0 
0.998943 0.0137522 0.0 
0.952268 0.00700638 0.0 
1.13663 -0.0339644 0.0 
1.05525 0.0196044 0.0 
0.989386 0.00723957 0.0 
0.953449 0.0152844 0.0 
0.998983 0.0139369 0.0 
1.05856 0.00440474 0.0 
1.04135 -0.00573327 0.0 
1.0611 -0.0225153 0.0 
0.990551 0.00887938 0.0 
1.02215 0.0466134 0.0 
0.998898 0.0131993 0.0 
1.04498 -0.0270536 0.0 
1.06638 0.0186797 0.0 
0.0560765 0.019417 0.0 
0.0513177 0.0120916 0.0 
1.06958 0.0146309 0.0 
0.905239 -0.0565142 0.0 
0.886596 -0.0481903 0.0 
0.875868 0.120959 0.0 
0.99943 0.0138751 0.0 
0.998876 0.0138558 0.0 
0.962881 -0.0132789 0.0 
0.965035 -0.00205496 0.0 
1.03472 0.0260222 0.0 
0.96349 0.23542 0.0 
1.06726 0.152924 0.0 
1.03009 -0.0447786 0.0 
0.0649116 0.00369996 0.0 
1.16391 0.0265024 0.0 
1.10239 0.147128 0.0 
0.998732 0.0133786 0.0 
1.01611 0.0362547 0.0 
1.11565 -0.00723161 0.0 
0.982868 0.0208987 0.0 
0.934498 0.0465224 0.0 
1.03058 -0.0296359 0.0 
0.973417 0.0373951 0.0 
0.941176 0.109282 0.0 
0.934162 0.0590809 0.0 
0.787115 -0.0363433 0.0 
0.962918 0.00705243 0.0 
0.786558 -0.0483639 0.0 
1.00104 0.01807 0.0 
1.032 0.0428774 0.0 
0.953868 -0.010301 0.0 
0.961615 -0.00109925 0.0 
0.922618 0.0342734 0.0 
1.10002 0.249938 0.0 
0.97238 0.00600724 0.0 
0.941001 0.292236 0.0 
0.945426 0.0328229 0.0 
0.974954 0.226979 0.0 
0.848619 0.2863 0.0 
0.99522 0.00744943 0.0 
1.00089 0 0.0 
0.998836 0.0120466 0.0 
0.977319 0.00146258 0.0 
0.890606 0.154512 0.0 
0.129923 0.00877771 0.0 
1.01089 0.043074 0.0 
0.98081 0.00707461 0.0 
0.999414 0.012442 0.0 
0.915659 -0.0719476 0.0 
0.916627 0.0330679 0.0 
1.19492 -0.0346294 0.0 
0.998724 0.0123148 0.0 
0.945098 0.0718322 0.0 
0.729699 -0.0728151 0.0 
1.03339 -0.0237147 0.0 
0.936223 0.0638274 0.0 
0.995321 0.0161167 0.0 
0.94446 0.0275681 0.0 
0.991118 0.0199562 0.0 
0.0801062 0.0132773 0.0 
0.722403 -0.0639702 0.0 
1.04397 -0.00317976 0.0 
1.15884 0.082046 0.0 
1.13731 -0.0257486 0.0 
0.997721 0.0106224 0.0 
0.982255 0.0185225 0.0 
1.00202 0.202946 0.0 
1.11419 0.159144 0.0 
0.578908 0.0956774 0.0 
0.950981 0.189629 0.0 
0.981631 0.0188913 0.0 
0.248588 -0.0244297 0.0 
0.982633 0.0218103 0.0 
0.997319 0.012665 0.0 
1.00036 0.0195131 0.0 
0.194184 -0.0219052 0.0 
0.155076 -0.0121616 0.0 
0.981845 0.0300747 0.0 
0.334974 0.058088 0.0 
1.19238 0.0937228 0.0 
1.01011 0.042574 0.0 
0.981011 0.0323417 0.0 
0.99973 0.0194173 0.0 
0.977971 0.0111698 0.0 
0.930307 0.0688949 0.0 
0.976647 0.0257283 0.0 
0.851715 0.285463 0.0 
0.461746 -0.0305027 0.0 
0.179473 -0.010552 0.0 
0.968245 0.0134705 0.0 
0.974847 0.0120832 0.0 
1.05414 0.205651 0.0 
0.260245 -0.0280262 0.0 
0.939897 0.021015 0.0 
1.03381 -0.0391564 0.0 
0.982728 0.246444 0.0 
0.99928 0.013515 0.0 
0.922532 0.0820496 0.0 
0.97245 0.0309958 0.0 
0.930069 0.143702 0.0 
0.955549 0.157208 0.0 
1.00851 0.25593 0.0 
0.680902 -0.0264904 0.0 
0.937276 -0.0524906 0.0 
1.11774 0.0590989 0.0 
0.466076 0.0937663 0.0 
0.926357 -0.0597967 0.0 
0.0702215 0.006375 0.0 
0.898971 -0.0128722 0.0 
0.744799 0.13632 0.0 
0.915009 -0.0665297 0.0 
0.922117 -0.0562678 0.0 
0.611567 0.165271 0.0 
1.0469 0.00699396 0.0 
0.940779 0.173882 0.0 
0.879596 -0.0048952 0.0 
0.928257 -0.0538608 0.0 
1.04074 -0.00572228 0.0 
0.337643 0.0415146 0.0 
1.03746 -0.00898307 0.0 
0.866019 0.00746316 0.0 
0.895049 0.217726 0.0 
1.04891 -0.0016291 0.0 
0.906523 -0.0882003 0.0 
0.918334 0.183511 0.0 
0.239687 -0.0287298 0.0 
1.1314 0.0618806 0.0 
1.03159 0.1714 0.0 
0.830048 0.380988 0.0 
1.10204 0.166269 0.0 
1.06291 0.260792 0.0 
0.923874 -0.0386324 0.0 
0.689496 -0.0858329 0.0 
0.977758 0.0333484 0.0 
0.515989 0.0620369 0.0 
0.918348 -0.0527457 0.0 
1.04726 0.0671337 0.0 
0.135664 0.00300234 0.0 
1.04348 0.264486 0.0 
1.05946 0.0411009 0.0 
0.878942 0.105553 0.0 
1.00506 0.021736 0.0 
0.892733 0.067141 0.0 
0.082119 0.0144809 0.0 
0.853228 0.0766071 0.0 
0.949464 0.0369447 0.0 
0.947362 0.00385568 0.0 
1.17387 -0.039824 0.0 
0.762819 0.335672 0.0 
0.847575 0.0893425 0.0 
1.0292 0.0732083 0.0 
1.08184 -0.0958946 0.0 
0.921005 -0.0469735 0.0 
1.03878 0.272698 0.0 
0.964771 0.0168761 0.0 
0.995835 0.0401731 0.0 
0.910251 0.0772386 0.0 
0.924552 0.112974 0.0 
0.910687 0.0355244 0.0 
1.009 0.027257 0.0 
0.919791 0.106264 0.0 
0.91718 0.221317 0.0 
0.999208 0.0126089 0.0 
1.09178 -0.071505 0.0 
0.25602 -0.030937 0.0 
1.0523 0.252136 0.0 
0.965969 0.203639 0.0 
0.806965 0.151503 0.0 
0.826854 0.0383315 0.0 
0.886274 0.02994 0.0 
1.04142 0.305912 0.0 
0.999595 0.0172666 0.0 
1.12484 0.141669 0.0 
1.03279 0.227284 0.0 
0.886249 -0.0483452 0.0 
0.922929 -0.00194313 0.0 
0.858234 0.158734 0.0 
0.910962 0.0207179 0.0 
0.885147 0.0149202 0.0 
0.932286 -0.0461773 0.0 
0.933962 0.20776 0.0 
0.99575 0.0302238 0.0 
0.99959 0.014779 0.0 
0.0651879 0.0187281 0.0 
0.0666228 0.0144571 0.0 
0.912919 0.0278467 0.0 
0.524386 0.153608 0.0 
1.03875 -0.0074918 0.0 
0.921659 -0.0164138 0.0 
0.978021 -0.00102977 0.0 
0.9026 0.0767032 0.0 
0.841777 0.00679159 0.0 
1.08178 -0.0678974 0.0 
0.955093 0.00796529 0.0 
0.975553 0.00908199 0.0 
1.0836 0.268685 0.0 
0.173953 -0.014431 0.0 
0.930189 0.300698 0.0 
0.973034 0.00260064 0.0 
0.989079 0.0541592 0.0 
1.06858 -0.229576 0.0 
0.96901 0.00465098 0.0 
0.96175 0.0125506 0.0 
0.997726 0.0132181 0.0 
1.03791 -0.00872265 0.0 
0.792572 0.109126 0.0 
0.904467 0.0184552 0.0 
0.990939 0.00538166 0.0 
1.02807 -0.183035 0.0 
0.995197 0.0153966 0.0 
0.935514 0.0241676 0.0 
0.807457 0.168525 0.0 
0.950052 -0.00854844 0.0 
0.998128 0.0101043 0.0 
0.938777 0.00470957 0.0 
0.187954 0.128419 0.0 
0.94389 -0.00845384 0.0 
1.06528 -0.0101521 0.0 
0.953522 0.289226 0.0 
0.0563862 0.00974737 0.0 
1.10076 0.256095 0.0 
0.988017 0.01486 0.0 
0.87909 -0.116558 0.0 
0.968903 0.00180997 0.0 
0.959664 0.00913253 0.0 
0.959915 0.00451959 0.0 
0.54216 0.134724 0.0 
0.961955 0.00183093 0.0 
0.956056 -0.0136438 0.0 
0.649603 0.184291 0.0 
1.03461 -0.0125265 0.0 
1.03539 0.0453711 0.0 
0.995528 0.266588 0.0 
0.98108 0.0208093 0.0 
0.97553 0.0290294 0.0 
0.96472 0.00391142 0.0 
0.893458 0.0129716 0.0 
0.959008 -0.0179507 0.0 
0.109361 0.000586304 0.0 
0.968765 -0.000260191 0.0 
1.06048 0.0164357 0.0 
0.876092 0.168337 0.0 
0.996496 0.0120153 0.0 
1.06647 0.0272317 0.0 
1.05817 0.0959069 0.0 
1.10213 -0.0716457 0.0 
1.0971 0.106172 0.0 
0.976582 -0.00299985 0.0 
0.876725 0.183309 0.0 
0.996652 0.0144196 0.0 
0.996964 0.0110941 0.0 
0.88978 -0.04122 0.0 
0.978763 0.0257865 0.0 
1.16364 -0.227382 0.0 
0.635712 0.0182197 0.0 
0.942071 0.0416481 0.0 
1.01689 0.303269 0.0 
0.907254 0.353593 0.0 
0.839016 0.132315 0.0 
1.16047 0.0780657 0.0 
0.153563 0.13394 0.0 
1.01734 0.29027 0.0 
1.06536 0.266705 0.0 
1.03955 -0.0058705 0.0 
0.938869 0.0944484 0.0 
0.0454884 0.00656154 0.0 
1.17577 0.149313 0.0 
0.977878 0.0318916 0.0 
0.910002 0.122304 0.0 
1.12575 0.221024 0.0 
0.85138 0.124499 0.0 
-0.0438605 -0.0182491 0.0 
0.978969 0.0300161 0.0 
0.925159 0.0737826 0.0 
0.74168 0.140779 0.0 
0.979802 0.0267495 0.0 
0.911753 0.150432 0.0 
0.995896 0.0124907 0.0 
0.903145 0.101676 0.0 
0.979296 0.0279233 0.0 
0.853956 0.0557473 0.0 
0.831025 0.0225618 0.0 
0.904205 0.164507 0.0 
0.998776 0.0113382 0.0 
0.968975 -0.00474153 0.0 
0.980261 0.0250869 0.0 
0.99912 0.0175435 0.0 
0.962826 -0.00477365 0.0 
0.961805 -0.00845355 0.0 
0.966279 -0.00422851 0.0 
0.93828 -0.0415554 0.0 
0.925938 0.058236 0.0 
0.926534 0.0882914 0.0 
1.04173 -0.00130773 0.0 
0.989847 0.0320085 0.0 
1.06521 0.0283505 0.0 
0.999218 0.0144487 0.0 
1.07864 -0.00722295 0.0 
1.00563 0.0801659 0.0 
0.949783 0.0132905 0.0 
0.977015 0.0270984 0.0 
1.0497 -0.161397 0.0 
1.10029 0.244097 0.0 
1.12411 0.232436 0.0 
0.933374 -0.0322673 0.0 
0.99911 0.0139778 0.0 
0.951277 0.0109389 0.0 
0.996397 0.013571 0.0 
0.979597 0.00534903 0.0 
1.0558 0.00967575 0.0 
1.04852 -0.17209 0.0 
0.0669639 0.00427268 0.0 
0.663102 0.136941 0.0 