<VTKFile type="UnstructuredGrid" version="0.1" byte_order="LittleEndian">
  <UnstructuredGrid>
    <Piece NumberOfPoints="9712" NumberOfCells="19403">
      <Points>
        <DataArray type = "Float64" NumberOfComponents="3" format="ascii">
-5 -7 0.0 
15.5 -7 0.0 
15.5 7 0.0 
-5 7 0.0 
-1.6546 1.77742 0.0 
-2.13867 1.86504 0.0 
-1.83467 1.79143 0.0 
1.47969 -2.21179 0.0 
1.36003 -2.38618 0.0 
1.4346 -2.45048 0.0 
-2.04214 1.94165 0.0 
-0.20425 1.17338 0.0 
-2.07648 1.81911 0.0 
-2.00827 1.89081 0.0 
-2.05492 1.98872 0.0 
0.192693 0.536219 0.0 
0.154285 1.75648 0.0 
1.1379 -1.62057 0.0 
-2.11226 1.96977 0.0 
-1.74119 1.75327 0.0 
1.14499 -1.58184 0.0 
-1.94373 2.37229 0.0 
1.50619 -0.664239 0.0 
1.99658 -1.76705 0.0 
1.7229 -1.18344 0.0 
-1.97759 2.52091 0.0 
-0.768046 0.387136 0.0 
1.32657 -1.43969 0.0 
1.90142 0.24821 0.0 
-0.93264 1.51038 0.0 
1.09557 0.967223 0.0 
0.627111 0.757352 0.0 
-2.05707 2.31394 0.0 
1.34027 -2.45136 0.0 
-0.725097 0.397516 0.0 
-0.666094 2.30428 0.0 
-0.73829 -0.279965 0.0 
1.73336 -1.08822 0.0 
1.88466 -1.24421 0.0 
1.50539 -1.23752 0.0 
1.65978 -1.30759 0.0 
-0.0409718 0.542603 0.0 
1.6005 -1.1227 0.0 
1.78439 -0.941488 0.0 
1.86015 -1.54236 0.0 
1.49308 -1.40058 0.0 
2.34892 -1.47149 0.0 
2.13832 -1.3246 0.0 
1.73061 0.751302 0.0 
-0.580328 0.526903 0.0 
1.51013 -2.1595 0.0 
-1.65424 3.45779 0.0 
-1.51397 2.46352 0.0 
1.42773 -2.17867 0.0 
0.304353 0.497878 0.0 
2.24628 0.228293 0.0 
1.51258 -2.27933 0.0 
-1.60346 3.44299 0.0 
-1.71408 2.36227 0.0 
2.17421 0.530405 0.0 
2.42 0.316451 0.0 
-1.63642 3.31911 0.0 
2.53942 -0.995036 0.0 
0.750003 0.810439 0.0 
2.04736 0.40918 0.0 
1.19615 -1.50641 0.0 
2.13474 0.494063 0.0 
0.547924 0.306722 0.0 
-0.2059 0.361394 0.0 
2.2127 0.547693 0.0 
1.41442 -0.597105 0.0 
1.52233 -1.46252 0.0 
-1.84114 2.53924 0.0 
-5 -2.53894 0.0 
2.32127 0.371156 0.0 
-1.69186 3.33379 0.0 
-0.964779 0.566136 0.0 
-1.81311 2.48387 0.0 
-1.78557 3.38304 0.0 
1.48278 0.914136 0.0 
2.51531 -1.89689 0.0 
1.20982 -0.330514 0.0 
0.408434 0.319657 0.0 
0.95023 0.60993 0.0 
-0.752349 0.440796 0.0 
-0.998248 0.564019 0.0 
-1.73165 3.36299 0.0 
1.24353 -1.49063 0.0 
0.942095 0.817189 0.0 
-1.77816 2.47096 0.0 
2.48183 -1.95479 0.0 
1.33574 -1.77854 0.0 
0.823335 1.12085 0.0 
-0.36308 0.598468 0.0 
0.745466 0.783414 0.0 
-1.88344 2.8521 0.0 
-1.79794 3.52221 0.0 
3.0087 0.272815 0.0 
-1.81486 2.66014 0.0 
0.375911 -0.403668 0.0 
-0.68323 0.487288 0.0 
-0.34187 -0.274923 0.0 
-0.293875 -0.201368 0.0 
1.61018 -1.767 0.0 
-0.448275 -0.347267 0.0 
-1.08687 0.352015 0.0 
1.29257 -1.76345 0.0 
1.67658 -1.49551 0.0 
1.19193 0.533009 0.0 
1.21582 -1.91654 0.0 
-0.36438 -0.346225 0.0 
-0.92534 0.330346 0.0 
2.3836 0.287756 0.0 
1.68841 0.639887 0.0 
1.59001 -1.89458 0.0 
1.14818 -1.92143 0.0 
1.28996 -2.19426 0.0 
1.37603 -1.8763 0.0 
1.23834 -2.09141 0.0 
1.11702 -2.06287 0.0 
0.691829 0.463808 0.0 
1.46523 -2.03459 0.0 
-0.123547 0.424486 0.0 
-1.3311 2.12174 0.0 
1.08169 -1.90074 0.0 
1.87975 -2.15971 0.0 
1.10131 -1.78593 0.0 
1.13722 0.534683 0.0 
1.42465 -1.59031 0.0 
-1.45435 2.47344 0.0 
1.41998 -1.98207 0.0 
0.463917 1.8787 0.0 
-1.72896 2.89571 0.0 
1.12419 -1.84975 0.0 
1.59054 -1.20634 0.0 
0.46124 0.621002 0.0 
0.806438 -1.00204 0.0 
2.1804 0.349761 0.0 
2.21142 -1.6418 0.0 
1.10152 -0.274558 0.0 
2.23388 0.387302 0.0 
0.137769 0.567007 0.0 
1.88736 0.267391 0.0 
1.26821 -1.94267 0.0 
0.21033 -0.605707 0.0 
2.61094 -1.50046 0.0 
0.819837 0.743337 0.0 
-1.4303 2.07799 0.0 
1.82013 0.322126 0.0 
-1.47649 2.2099 0.0 
1.15745 -0.274223 0.0 
-1.81198 2.24994 0.0 
2.34337 -1.67775 0.0 
-1.13329 1.37877 0.0 
-0.828215 1.05292 0.0 
2.46752 -1.53452 0.0 
-1.69915 2.18529 0.0 
-0.404416 -0.286271 0.0 
-1.23501 1.31766 0.0 
2.11757 -1.50659 0.0 
-1.08535 1.28274 0.0 
2.58548 -1.70783 0.0 
0.24729 -0.572345 0.0 
-1.66963 2.25319 0.0 
1.58322 -1.62308 0.0 
-0.367923 -0.306026 0.0 
0.391521 1.44485 0.0 
1.88977 -2.46319 0.0 
1.5943 -1.53613 0.0 
-0.357143 -0.23651 0.0 
0.82621 0.80563 0.0 
-1.59261 2.31884 0.0 
-0.47244 -0.307516 0.0 
-0.40334 -0.326688 0.0 
-2.00063 2.11543 0.0 
1.55514 -1.95078 0.0 
-1.40431 2.26352 0.0 
-0.0265928 0.573714 0.0 
1.17093 1.10579 0.0 
-1.77907 2.22111 0.0 
0.682788 0.329642 0.0 
-0.54475 2.15572 0.0 
-0.288592 0.289433 0.0 
-1.43199 2.16349 0.0 
-1.45029 2.25134 0.0 
1.5535 -1.79992 0.0 
-1.06406 1.08381 0.0 
1.72954 1.44966 0.0 
0.582806 0.515814 0.0 
0.582876 -0.679913 0.0 
1.32351 -0.355916 0.0 
-0.47505 0.577092 0.0 
-0.371167 0.227715 0.0 
1.52235 -1.8529 0.0 
-0.429822 -0.244811 0.0 
-0.53237 -0.24648 0.0 
-0.393983 -0.210364 0.0 
0.652895 0.317361 0.0 
1.55812 -1.70765 0.0 
1.63021 0.325622 0.0 
0.442731 0.358729 0.0 
1.22925 -1.85192 0.0 
1.43517 -1.79082 0.0 
1.39317 -1.6984 0.0 
1.62965 0.295952 0.0 
0.905462 0.793465 0.0 
1.04036 -1.64811 0.0 
2.1131 -1.72466 0.0 
-0.743911 0.369492 0.0 
1.14427 -1.99314 0.0 
1.26033 -2.0209 0.0 
-1.70955 2.07308 0.0 
0.910023 -1.62976 0.0 
-0.313059 -0.0954838 0.0 
-1.77334 2.3988 0.0 
-0.311958 -0.24042 0.0 
2.53315 0.325608 0.0 
-0.273728 -0.226719 0.0 
-0.646401 0.379627 0.0 
1.52426 0.616074 0.0 
2.21703 -1.79499 0.0 
2.71108 0.312216 0.0 
0.759924 1.093 0.0 
-1.69271 2.12368 0.0 
0.255794 0.540969 0.0 
0.0534699 0.562158 0.0 
-1.5679 2.22408 0.0 
-1.66906 2.45165 0.0 
-1.51895 2.09449 0.0 
2.16948 0.408238 0.0 
-0.818806 0.680638 0.0 
-0.826868 0.642087 0.0 
0.519855 0.276992 0.0 
-0.716682 1.18602 0.0 
-0.649974 -0.148775 0.0 
0.457368 0.256619 0.0 
0.517407 0.248194 0.0 
0.327129 0.39802 0.0 
0.533249 -0.878832 0.0 
-0.870735 0.634904 0.0 
1.19219 1.07557 0.0 
2.35922 0.366028 0.0 
-1.66911 3.66723 0.0 
-0.857603 1.54934 0.0 
-0.379189 2.30131 0.0 
-0.941007 1.36523 0.0 
-1.58662 2.49682 0.0 
-0.545297 0.352587 0.0 
0.327944 -0.744683 0.0 
-0.312756 0.524741 0.0 
-0.107843 0.506233 0.0 
2.13378 -2.36584 0.0 
1.52689 0.686953 0.0 
-0.119983 0.327909 0.0 
1.02161 -1.53072 0.0 
1.51507 0.39695 0.0 
-0.674484 1.02605 0.0 
-0.564724 -0.148435 0.0 
0.409388 0.290913 0.0 
0.252349 0.30842 0.0 
-1.09282 1.45998 0.0 
1.45674 -1.54484 0.0 
-0.266777 0.782169 0.0 
0.91327 -0.874389 0.0 
1.01208 1.13309 0.0 
-0.897136 1.35063 0.0 
-0.846484 0.489353 0.0 
1.47563 0.663768 0.0 
-1.22282 2.05021 0.0 
0.348906 0.416714 0.0 
1.41913 0.964648 0.0 
0.933289 -0.839038 0.0 
-1.85066 1.40221 0.0 
0.142477 1.99435 0.0 
-0.717809 0.341194 0.0 
-2.21177 1.41584 0.0 
0.396571 0.350929 0.0 
1.25171 -1.60721 0.0 
0.736798 0.393502 0.0 
-0.661427 0.19031 0.0 
2.18751 -2.32769 0.0 
-1.00908 1.6747 0.0 
2.21416 -2.07269 0.0 
-0.779194 0.642011 0.0 
-1.02312 1.3939 0.0 
2.08809 -2.24876 0.0 
-5 -4.48794 0.0 
1.61792 -1.46215 0.0 
-0.974627 1.38947 0.0 
1.81166 -2.48446 0.0 
-1.03635 1.47474 0.0 
0.869004 -1.74424 0.0 
0.956579 -1.78598 0.0 
1.07495 0.540689 0.0 
-1.08005 1.37763 0.0 
0.914755 -0.803058 0.0 
0.611759 -0.305322 0.0 
1.70043 -1.41356 0.0 
0.75708 -0.631542 0.0 
1.21215 1.01979 0.0 
-0.586902 0.440014 0.0 
1.9251 -2.56336 0.0 
-1.58261 1.91091 0.0 
-0.746541 1.26087 0.0 
-1.49915 1.13657 0.0 
-1.46675 0.971536 0.0 
-1.05881 0.930935 0.0 
0.71826 0.415078 0.0 
-0.701697 0.526982 0.0 
-1.56194 2.05157 0.0 
1.15988 0.991244 0.0 
1.38676 0.949615 0.0 
-1.61697 2.02689 0.0 
1.13748 -0.357331 0.0 
-1.8456 2.04561 0.0 
0.253686 -0.756334 0.0 
-1.53603 1.86509 0.0 
-1.43465 0.924137 0.0 
-1.00273 1.27416 0.0 
-1.03063 1.5132 0.0 
-1.32483 1.94769 0.0 
-0.965552 1.61445 0.0 
-0.239859 -0.245939 0.0 
-5 3.01776 0.0 
-5 -0.248741 0.0 
0.517491 1.87079 0.0 
-1.18776 1.8875 0.0 
2.27458 0.36201 0.0 
1.9794 0.331487 0.0 
0.503086 0.510306 0.0 
1.26387 -0.370702 0.0 
1.24483 0.550197 0.0 
1.12871 0.979556 0.0 
-1.48659 1.83259 0.0 
1.0672 0.958366 0.0 
-1.16856 1.61214 0.0 
-0.218637 -0.230696 0.0 
-5 1.81431 0.0 
1.37014 1.04658 0.0 
0.0950623 0.557621 0.0 
-1.23613 1.67303 0.0 
0.953731 -0.709843 0.0 
2.07568 -1.85385 0.0 
2.10836 -1.82014 0.0 
-0.994952 1.33552 0.0 
-1.86986 1.52312 0.0 
0.515812 0.447542 0.0 
0.842446 0.992035 0.0 
-1.42353 1.8223 0.0 
2.091 0.354014 0.0 
-0.937663 0.401428 0.0 
-1.69305 1.41997 0.0 
-1.82465 1.55127 0.0 
2.15192 0.384657 0.0 
-1.17972 1.37998 0.0 
-0.718866 -0.0130647 0.0 
-0.927867 0.290435 0.0 
1.56509 0.300406 0.0 
-5 -3.04052 0.0 
9.98027 -7 0.0 
0.176009 0.694641 0.0 
0.597997 -0.559941 0.0 
-0.546583 0.4849 0.0 
0.602022 -0.657834 0.0 
2.17737 0.379672 0.0 
1.89809 0.287017 0.0 
-1.58883 1.35796 0.0 
-1.2284 1.37063 0.0 
-1.43937 1.35342 0.0 
-1.59664 1.47263 0.0 
0.577431 -0.368705 0.0 
1.5263 -1.51093 0.0 
0.479666 0.796509 0.0 
0.894995 1.01463 0.0 
2.22312 0.363016 0.0 
-0.320562 0.726481 0.0 
-1.30188 2.41386 0.0 
0.43802 0.434693 0.0 
-0.761697 0.762024 0.0 
1.45688 -1.49591 0.0 
-0.65072 0.676835 0.0 
1.6097 -1.41509 0.0 
2.25768 0.399237 0.0 
1.85518 0.299709 0.0 
2.14618 0.290757 0.0 
2.25222 0.371677 0.0 
-1.93063 2.91367 0.0 
1.52717 0.319618 0.0 
1.67964 -1.62237 0.0 
1.35962 -0.439169 0.0 
1.63007 -1.54335 0.0 
-5 -0.764504 0.0 
-1.61377 2.62271 0.0 
1.73865 -1.57725 0.0 
-0.908306 1.23669 0.0 
1.60766 0.330292 0.0 
1.82509 -1.63054 0.0 
1.90521 0.312457 0.0 
1.98719 -1.6488 0.0 
-0.528791 0.39225 0.0 
1.94978 -2.39003 0.0 
-0.472559 0.718465 0.0 
-1.28058 2.26572 0.0 
0.881581 -0.556282 0.0 
2.26369 0.42542 0.0 
0.917309 -1.69962 0.0 
0.853954 -1.60945 0.0 
1.30086 -0.404316 0.0 
1.99565 -2.46852 0.0 
1.49445 -1.47573 0.0 
1.68285 0.863315 0.0 
2.03074 -2.37549 0.0 
2.52279 -0.506167 0.0 
2.56049 -1.76899 0.0 
-1.52889 2.56597 0.0 
2.81136 -0.570221 0.0 
1.3688 -1.46095 0.0 
1.29524 -0.373946 0.0 
-0.350504 0.671928 0.0 
-0.590282 0.564035 0.0 
-0.054366 2.16706 0.0 
1.50819 1.22548 0.0 
-0.548222 0.453941 0.0 
2.19936 -2.5207 0.0 
12.2704 -7 0.0 
1.6811 -1.36761 0.0 
-0.449261 0.559535 0.0 
0.537017 -0.527614 0.0 
-0.00733391 0.553304 0.0 
0.494109 -0.356396 0.0 
-0.7939 0.0827441 0.0 
0.39888 0.467333 0.0 
-1.04288 1.34095 0.0 
0.605019 1.02824 0.0 
0.847559 0.374727 0.0 
1.00336 0.618307 0.0 
2.1955 0.399186 0.0 
0.656973 0.401158 0.0 
-0.998431 2.73564 0.0 
[...]
<PointData>
  <DataArray type = "Float64" Name="VitesseP1" NumberOfComponents="3" format="ascii">
1 0 0.0 
1.07665 0 0.0 
1.02427 0 0.0 
1 0 0.0 
0.994557 0.0158604 0.0 
0.996879 0.0111809 0.0 
0.995447 0.0136639 0.0 
1.03899 -0.0048445 0.0 
1.04025 -0.00720266 0.0 
1.04451 -0.00676921 0.0 
0.997726 0.0121145 0.0 
0.986172 0.0725494 0.0 
0.99657 0.0115123 0.0 
0.996781 0.0123051 0.0 
0.99889 0.0121185 0.0 
0.992259 0.217662 0.0 
1.01894 0.0539843 0.0 
1.05085 -0.0256348 0.0 
0.998816 0.0115364 0.0 
0.994977 0.014591 0.0 
1.05496 -0.0265003 0.0 
0.998807 0.0134614 0.0 
1.15874 -0.0235915 0.0 
1.04823 0.0115295 0.0 
1.06156 -0.00109069 0.0 
0.998767 0.0130457 0.0 
0.944436 0.00869677 0.0 
1.06163 -0.0214773 0.0 
0.0633523 0.0140784 0.0 
0.988644 0.0314631 0.0 
1.14113 0.0657023 0.0 
1.10959 0.141047 0.0 
0.998805 0.0124619 0.0 
1.0312 -0.019926 0.0 
0.941282 0.0122775 0.0 
1.00535 0.0306106 0.0 
0.936928 -0.0512895 0.0 
1.08251 -0.000628691 0.0 
1.05425 0.00933903 0.0 
1.05274 -0.0147781 0.0 
1.05537 -0.00445731 0.0 
0.92683 0.151347 0.0 
1.07329 -0.0100364 0.0 
1.1243 0.00323636 0.0 
1.06637 0.00691 0.0 
1.06197 -0.0132692 0.0 
1.05947 0.0335615 0.0 
1.05459 0.0243643 0.0 
1.19698 0.020721 0.0 
0.939464 0.0355805 0.0 
1.03831 -0.00458409 0.0 
1.00248 0.0124517 0.0 
0.999742 0.017635 0.0 
1.03781 -0.00634249 0.0 
1.03775 0.242557 0.0 
0.0401825 0.0114851 0.0 
1.03989 -0.00390195 0.0 
1.0027 0.0128518 0.0 
0.999028 0.015726 0.0 
1.17792 -0.0197971 0.0 
0.210842 -0.0279743 0.0 
1.00235 0.0131107 0.0 
1.09064 0.0611302 0.0 
1.1223 0.119328 0.0 
0.607822 -0.0036901 0.0 
1.05967 -0.0263527 0.0 
1.10168 -0.0156167 0.0 
0.558187 0.134466 0.0 
0.862702 0.0852993 0.0 
1.19188 -0.0251081 0.0 
1.20043 -0.0351531 0.0 
1.06521 -0.0110046 0.0 
0.998976 0.0141899 0.0 
1 0 0.0 
0.381093 -0.0308112 0.0 
1.00212 0.012689 0.0 
0.96806 0.0106049 0.0 
0.998999 0.0145454 0.0 
1.00175 0.0118719 0.0 
1.17115 0.0313381 0.0 
1.0366 0.020846 0.0 
0.75878 -0.0395393 0.0 
0.949415 0.262655 0.0 
1.17302 0.112958 0.0 
0.94608 0.0142262 0.0 
0.969874 0.00890552 0.0 
1.00203 0.0123003 0.0 
1.06088 -0.024565 0.0 
1.14278 0.0955236 0.0 
0.999064 0.0148948 0.0 
1.04264 0.0253004 0.0 
1.04476 -0.0144949 0.0 
1.09552 0.0784006 0.0 
0.935425 0.0699348 0.0 
1.12469 0.123456 0.0 
0.999801 0.0129879 0.0 
1.00223 0.0111045 0.0 
0.0805621 -0.14643 0.0 
0.99916 0.0141272 0.0 
1.19188 -0.234095 0.0 
0.943983 0.0229822 0.0 
0.918822 -0.088347 0.0 
0.915732 -0.0744835 0.0 
1.04876 -0.00406955 0.0 
0.924336 -0.0782445 0.0 
0.967067 -0.00814062 0.0 
1.04465 -0.0163904 0.0 
1.0668 -0.00259606 0.0 
1.19677 0.0799329 0.0 
1.03815 -0.0160971 0.0 
0.920064 -0.0885807 0.0 
0.954739 -0.00363453 0.0 
0.133477 -0.0128424 0.0 
1.20169 0.0275766 0.0 
1.04376 -0.00404074 0.0 
1.03668 -0.0179055 0.0 
1.03592 -0.00912274 0.0 
1.0422 -0.0115592 0.0 
1.03435 -0.0124327 0.0 
1.03202 -0.0170115 0.0 
1.16426 0.182824 0.0 
1.03781 -0.00681215 0.0 
0.877244 0.125806 0.0 
0.999019 0.0211239 0.0 
1.03592 -0.0202999 0.0 
1.03809 0.00484553 0.0 
1.03966 -0.0225137 0.0 
1.19619 0.0877226 0.0 
1.06078 -0.0141493 0.0 
0.99999 0.0182636 0.0 
1.03844 -0.00877343 0.0 
1.02812 0.0474044 0.0 
1.00067 0.0140368 0.0 
1.03832 -0.0202761 0.0 
1.057 -0.0096752 0.0 
1.08746 0.188246 0.0 
1.06803 -0.072355 0.0 
0.241644 -0.00402351 0.0 
1.05423 0.0222361 0.0 
0.458623 -0.0383688 0.0 
0.453216 -0.0232508 0.0 
0.977631 0.196128 0.0 
0.0689972 0.0121687 0.0 
1.03788 -0.0140343 0.0 
1.03067 -0.160207 0.0 
1.04679 0.0484978 0.0 
1.13893 0.11903 0.0 
0.998733 0.0197238 0.0 
0.0912754 0.0110386 0.0 
0.998892 0.0188005 0.0 
0.411897 -0.0162316 0.0 
0.99872 0.0148067 0.0 
1.04704 0.0265475 0.0 
0.98508 0.024676 0.0 
0.973345 0.0344259 0.0 
1.05315 0.037588 0.0 
0.998548 0.0160598 0.0 
0.922796 -0.0794902 0.0 
0.984097 0.0210835 0.0 
1.06442 0.0204215 0.0 
0.981507 0.0255207 0.0 
1.03352 0.0324064 0.0 
1.04004 -0.170689 0.0 
0.99883 0.0163548 0.0 
1.0593 -0.00636522 0.0 
0.920203 -0.085858 0.0 
1.03329 0.06953 0.0 
1.04338 -0.000570001 0.0 
1.06591 -0.00658254 0.0 
0.916508 -0.0816768 0.0 
1.13218 0.110945 0.0 
0.999138 0.0171441 0.0 
0.927654 -0.0726848 0.0 
0.922208 -0.0825542 0.0 
0.998596 0.0128529 0.0 
1.04092 -0.00488727 0.0 
0.999385 0.0196351 0.0 
0.938894 0.151284 0.0 
1.12845 0.0473118 0.0 
0.998661 0.015165 0.0 
0.635778 0.1103 0.0 
1.00596 0.0347362 0.0 
0.863272 0.0452998 0.0 
0.998852 0.0195199 0.0 
0.999193 0.01905 0.0 
1.04672 -0.00605288 0.0 
0.97387 0.0239897 0.0 
1.069 -0.0369331 0.0 
1.14146 0.1986 0.0 
1.1087 -0.128173 0.0 
0.877394 -0.0285932 0.0 
0.938135 0.0518035 0.0 
0.874966 0.0162974 0.0 
1.04469 -0.0067517 0.0 
0.924075 -0.0730622 0.0 
0.933179 -0.0625426 0.0 
0.918846 -0.0742189 0.0 
0.582972 0.110622 0.0 
1.05203 -0.0067104 0.0 
0.108247 0.0173135 0.0 
1.03772 0.264436 0.0 
1.04048 -0.0168978 0.0 
1.04585 -0.0106408 0.0 
1.05066 -0.0137205 0.0 
0.0879923 0.0198512 0.0 
1.14209 0.102289 0.0 
1.04572 -0.0284711 0.0 
1.04921 0.0166426 0.0 
0.941326 0.00853028 0.0 
1.03371 -0.0168986 0.0 
1.03521 -0.0129251 0.0 
0.998696 0.0159369 0.0 
1.04272 -0.0335234 0.0 
0.898751 -0.0655465 0.0 
0.998995 0.0150613 0.0 
0.909755 -0.085698 0.0 
0.277443 -0.049686 0.0 
0.887919 -0.0838839 0.0 
0.932526 0.0160304 0.0 
1.20026 0.0411409 0.0 
1.04446 0.0195467 0.0 
0.341832 -0.0646332 0.0 
1.09515 0.0860685 0.0 
0.998506 0.0161421 0.0 
1.01898 0.222517 0.0 
0.951462 0.176962 0.0 
0.998827 0.0176026 0.0 
0.999268 0.0160116 0.0 
0.998703 0.0184215 0.0 
0.599837 -0.0154866 0.0 
0.96764 0.0250678 0.0 
0.965334 0.0225742 0.0 
0.414936 0.135654 0.0 
0.976346 0.0408855 0.0 
0.940266 -0.0443894 0.0 
0.301895 0.101486 0.0 
0.375605 0.184374 0.0 
1.06343 0.296317 0.0 
1.06899 -0.102212 0.0 
0.967097 0.0194984 0.0 
1.13612 0.0474364 0.0 
0.37244 -0.0326643 0.0 
1.00056 0.0117758 0.0 
0.99024 0.0337957 0.0 
1.0095 0.0352469 0.0 
0.983662 0.0311267 0.0 
0.999571 0.0167471 0.0 
0.918648 0.0212669 0.0 
1.05855 -0.131001 0.0 
0.918901 0.0755175 0.0 
0.908649 0.131755 0.0 
1.04228 0.0138678 0.0 
1.19123 0.0383099 0.0 
0.829822 0.116526 0.0 
1.05449 -0.0330657 0.0 
0.579377 0.0208638 0.0 
0.975681 0.0434836 0.0 
0.93266 -0.0502922 0.0 
0.702609 0.194467 0.0 
0.899505 0.338723 0.0 
0.987182 0.0263445 0.0 
1.06406 -0.0132004 0.0 
0.967186 0.086095 0.0 
1.11257 -0.0754836 0.0 
1.10945 0.060894 0.0 
0.983034 0.0327736 0.0 
0.956196 0.0120548 0.0 
1.19199 0.0437908 0.0 
0.999115 0.0231399 0.0 
1.07764 0.283302 0.0 
1.1641 0.0335567 0.0 
1.12297 -0.0764305 0.0 
0.994045 0.0101904 0.0 
1.01746 0.0461971 0.0 
0.937336 0.00741863 0.0 
0.997206 0.00851539 0.0 
1.01876 0.283801 0.0 
1.05539 -0.0213385 0.0 
1.00228 0.150499 0.0 
0.925066 -0.00664402 0.0 
1.03457 0.0299057 0.0 
0.992719 0.0288429 0.0 
1.03553 0.0161842 0.0 
0.962748 0.0257547 0.0 
0.984901 0.0283345 0.0 
1.03408 0.00781702 0.0 
1 0 0.0 
1.06612 -0.00587857 0.0 
0.984616 0.0299809 0.0 
1.04211 -0.00040739 0.0 
0.987467 0.0281307 0.0 
1.0343 -0.0307259 0.0 
1.03587 -0.0270119 0.0 
1.19331 0.0971519 0.0 
0.984703 0.0263625 0.0 
1.12864 -0.0810287 0.0 
0.914528 -0.146146 0.0 
1.06448 -0.00165042 0.0 
1.12748 -0.113724 0.0 
1.14498 0.0496142 0.0 
0.931257 0.0272607 0.0 
1.03709 0.00281222 0.0 
0.995897 0.0173255 0.0 
0.979599 0.0392643 0.0 
0.983997 0.011193 0.0 
0.99551 0.0104559 0.0 
0.990096 0.0213062 0.0 
1.09093 0.167139 0.0 
0.948525 0.0245281 0.0 
0.998681 0.0177915 0.0 
1.14392 0.0571264 0.0 
1.16299 0.0373961 0.0 
0.998428 0.0170336 0.0 
0.935035 -0.055863 0.0 
0.999065 0.0143172 0.0 
1.04275 -0.127842 0.0 
0.994987 0.0179194 0.0 
1.00026 0.0111108 0.0 
0.980632 0.0284028 0.0 
0.98872 0.0283769 0.0 
0.996523 0.0215199 0.0 
0.991789 0.0302264 0.0 
0.882253 -0.105677 0.0 
1 0 0.0 
1 0 0.0 
1.02995 0.0467344 0.0 
0.995176 0.0241724 0.0 
0.32028 -0.0225448 0.0 
0.118237 0.0143815 0.0 
1.11703 0.216043 0.0 
0.964259 -0.0431924 0.0 
1.20061 0.0732749 0.0 
1.14261 0.061271 0.0 
0.994413 0.0186277 0.0 
1.13969 0.0694227 0.0 
0.99174 0.0246916 0.0 
0.948484 -0.164093 0.0 
1 0 0.0 
1.15425 0.0318499 0.0 
0.961775 0.189533 0.0 
0.992692 0.0232043 0.0 
1.14328 -0.0838718 0.0 
1.04393 0.0137026 0.0 
1.04482 0.0153153 0.0 
0.982746 0.0290716 0.0 
0.995321 0.0114393 0.0 
1.12875 0.231329 0.0 
1.11736 0.0894977 0.0 
0.994159 0.0196818 0.0 
0.229438 0.000779036 0.0 
0.958416 0.00115537 0.0 
0.992062 0.0122338 0.0 
0.995248 0.0121527 0.0 
0.413393 -0.00959699 0.0 
0.985434 0.0232884 0.0 
0.9487 -0.0292961 0.0 
0.953521 -0.00684546 0.0 
0.0962703 -0.0049125 0.0 
1 0 0.0 
1.06181 0 0.0 
1.00782 0.165626 0.0 
1.11966 -0.145307 0.0 
0.932014 0.0357322 0.0 
1.11266 -0.129442 0.0 
0.386094 -0.0121333 0.0 
0.07489 0.0130632 0.0 
0.989595 0.0129607 0.0 
0.985575 0.0218045 0.0 
0.987382 0.0160992 0.0 
0.991619 0.0143955 0.0 
1.10933 -0.172877 0.0 
1.06555 -0.0102125 0.0 
1.07955 0.146143 0.0 
1.12014 0.0823561 0.0 
0.311128 -0.0140651 0.0 
0.956726 0.0789783 0.0 
1.0005 0.0203508 0.0 
1.11158 0.256367 0.0 
0.972299 0.0324789 0.0 
1.06478 -0.0140008 0.0 
0.959322 0.0377781 0.0 
1.06413 -0.00675116 0.0 
0.541473 -0.0285341 0.0 
0.0795781 0.0115767 0.0 
0.0670363 0.0172525 0.0 
0.364079 -0.0214232 0.0 
0.999778 0.012424 0.0 
0.0778807 0.00171963 0.0 
1.0599 -0.00192185 0.0 
1.16308 -0.0400674 0.0 
1.06593 -0.00476075 0.0 
1 0 0.0 
0.999688 0.0160554 0.0 
1.06441 0.000820399 0.0 
0.979006 0.0319747 0.0 
0.102783 0.0110379 0.0 
1.0595 0.0048813 0.0 
0.089455 0.0119531 0.0 
1.05695 0.0121957 0.0 
0.920342 0.0279341 0.0 
1.03848 0.00102531 0.0 
0.957382 0.0581431 0.0 
0.999866 0.0213433 0.0 
1.19487 -0.10867 0.0 
0.742746 -0.031349 0.0 
1.03828 -0.0307919 0.0 
1.04248 -0.0359944 0.0 
1.07238 -0.0422283 0.0 
1.05008 0.00970957 0.0 
1.06516 -0.0123314 0.0 
1.18519 0.0157 0.0 
1.03794 0.0131843 0.0 
1.2405 0.086476 0.0 
1.03482 0.0275614 0.0 
0.999892 0.0171028 0.0 
1.16501 0.110266 0.0 
1.06286 -0.0190542 0.0 
0.977395 -0.0432244 0.0 
0.947796 0.0739514 0.0 
0.944241 0.037242 0.0 
1.01414 0.042385 0.0 
1.13009 -0.00233667 0.0 
0.928914 0.0325863 0.0 
1.01104 -0.00388481 0.0 
1.05754 0 0.0 
1.0612 -0.00289683 0.0 
0.933861 0.054283 0.0 
1.13933 -0.162954 0.0 
0.935696 0.160241 0.0 
1.1037 -0.194477 0.0 
0.952744 -0.0200447 0.0 
1.08784 0.250252 0.0 
0.98322 0.0273799 0.0 
1.08688 0.103788 0.0 
0.79324 0.100708 0.0 
1.17556 0.103877 0.0 
0.532505 -0.0188515 0.0 
1.07731 0.185446 0.0 
1.00399 0.021404 0.0 
1.05656 0.0149205 0.0 
1.04221 0.00822684 0.0 
1.04923 -0.00110262 0.0 
1.04716 -6.62367e-05 0.0 
0.112204 0.0102906 0.0 
1.04074 0.00166968 0.0 
0.037147 0.0231937 0.0 
1.10156 -0.0638612 0.0 
1.004 0.0351662 0.0 
1.04444 0.00886986 0.0 
1 0 0.0 
0.983209 0.0262166 0.0 
1.19378 0.092936 0.0 
0.831095 -0.0646553 0.0 
0.999541 0.0154954 0.0 
0.991709 0.0389783 0.0 
1.05138 0.00981394 0.0 
1.0557 0.00510326 0.0 
0.939917 0.188879 0.0 
0.783278 0.130053 0.0 
1.00425 0.0184441 0.0 
1.15634 0.13749 0.0 
0.999959 0.243019 0.0 
0.999053 0.0121152 0.0 
0.986084 0.0290572 0.0 
1.05286 0.00101396 0.0 
0.937906 0.124528 0.0 
0.234318 -0.0204843 0.0 
1.0519 0.00310905 0.0 
0.174586 0.0989793 0.0 
1.05212 -0.00103494 0.0 
1.06672 -0.0330665 0.0 
1.01566 0.0475647 0.0 
1.13766 -0.0683791 0.0 
1.04839 0.00203426 0.0 
0.957022 -0.00624123 0.0 
0.363092 0.0133045 0.0 
1.06179 -0.0224839 0.0 
0.946582 -0.00144337 0.0 
0.999744 0.0151905 0.0 
1.05929 -0.0272847 0.0 
0.941837 0.065666 0.0 
1.19576 -0.0429178 0.0 
0.332857 -0.0456305 0.0 
0.668318 -0.0374498 0.0 
0.941107 -0.00462078 0.0 
0.964696 0.272156 0.0 
0.252289 0.047774 0.0 
0.997088 0.315713 0.0 
0.997777 -0.0231955 0.0 
1.07791 -0.0419451 0.0 
0.770403 -0.00818199 0.0 
0.358129 0.116317 0.0 
1.10103 0.0689955 0.0 
0.998666 0.0122137 0.0 
0.614791 -0.00536469 0.0 
0.215374 -0.000868031 0.0 
0.914787 -0.0434107 0.0 
0.831248 -0.0466764 0.0 
1.02991 0.044231 0.0 
0.99875 0.0117988 0.0 
1.02619 -0.0976805 0.0 
1.11838 -0.0314584 0.0 
1.17026 0.0203421 0.0 
0.0816667 0.0116816 0.0 
0.936433 -0.0575991 0.0 
1.03344 0.0388536 0.0 
1.06509 -0.00794576 0.0 
0.938114 -0.00900491 0.0 
0.125519 0.00906999 0.0 
0.998768 0.0127281 0.0 
1.16969 0.0249455 0.0 
1.0582 -0.0266146 0.0 
0.963879 0.215892 0.0 
1.05025 0.0125336 0.0 
1.06631 0.000257252 0.0 
1.06624 0.00497361 0.0 
0.954566 0.0375379 0.0 
1.05996 -0.024416 0.0 
0.998891 0.0139145 0.0 
0.952241 0.00703732 0.0 
1.14194 -0.0303801 0.0 
1.0523 0.0204298 0.0 
0.989331 0.00733194 0.0 
0.953439 0.0152954 0.0 
0.998929 0.0141022 0.0 
1.05641 0.00540915 0.0 
1.04132 -0.00432333 0.0 
1.06008 -0.0217253 0.0 
0.990497 0.00897932 0.0 
1.0203 0.0440959 0.0 
0.998873 0.0133423 0.0 
1.04693 -0.0263387 0.0 
1.06288 0.0190355 0.0 
0.0574534 0.016885 0.0 
0.0664583 0.0153099 0.0 
1.06612 0.0149319 0.0 
0.905617 -0.0564544 0.0 
0.894601 -0.0461399 0.0 
0.883108 0.119598 0.0 
0.999362 0.0140517 0.0 
0.998829 0.0140146 0.0 
0.96279 -0.013224 0.0 
0.964987 -0.00199893 0.0 
1.03422 0.0237988 0.0 
0.963879 0.234765 0.0 
1.06711 0.151561 0.0 
1.02858 -0.0447806 0.0 
0.0685322 0.0150271 0.0 
1.158 0.0214192 0.0 
1.07912 0.140979 0.0 
0.998692 0.0135297 0.0 
1.01547 0.0341537 0.0 
1.10922 -0.0081375 0.0 
0.982883 0.0209395 0.0 
0.93453 0.0464195 0.0 
1.0326 -0.028693 0.0 
0.973422 0.0373666 0.0 
0.941242 0.108947 0.0 
0.934201 0.0589359 0.0 
0.875375 -0.0614379 0.0 
0.962893 0.00709315 0.0 
0.79453 -0.0468841 0.0 
1.00096 0.0182662 0.0 
1.02984 0.0432175 0.0 
0.953802 -0.0102239 0.0 
0.961567 -0.00104624 0.0 
0.922656 0.0342001 0.0 
1.10149 0.248585 0.0 
0.972362 0.00606272 0.0 
0.942823 0.291675 0.0 
0.945439 0.0327736 0.0 
0.975318 0.226274 0.0 
0.850343 0.285913 0.0 
0.995186 0.00754767 0.0 
1.00166 0 0.0 
0.998809 0.0121847 0.0 
0.977297 0.00153349 0.0 
0.896082 0.153496 0.0 
0.137779 0.00841863 0.0 
1.01049 0.0437059 0.0 
0.980803 0.00714418 0.0 
0.999395 0.0125818 0.0 
0.916013 -0.0718636 0.0 
0.916673 0.0329936 0.0 
1.19912 -0.0310245 0.0 
0.998687 0.0124595 0.0 
0.978528 0.0800199 0.0 
0.802011 -0.100792 0.0 
1.03459 -0.0231342 0.0 
0.936261 0.0636663 0.0 
0.995262 0.0162682 0.0 
0.944469 0.027534 0.0 
0.991036 0.0200949 0.0 
0.0764738 0.0149898 0.0 
0.797244 -0.0917429 0.0 
1.03975 -0.00483668 0.0 
1.14783 0.0859783 0.0 
1.15811 -0.0488365 0.0 
0.997701 0.010741 0.0 
0.982166 0.0186253 0.0 
1.00527 0.201762 0.0 
1.11421 0.157092 0.0 
0.585109 0.0953211 0.0 
0.951221 0.189049 0.0 
0.981545 0.0189902 0.0 
0.362005 -0.0582553 0.0 
0.98253 0.0219161 0.0 
0.997284 0.012802 0.0 
1.0003 0.0197137 0.0 
0.313258 -0.0509261 0.0 
0.263078 -0.0437759 0.0 
0.981703 0.0301722 0.0 
0.33955 0.0579813 0.0 
1.19244 0.0886331 0.0 
1.00974 0.0431683 0.0 
0.980858 0.0324304 0.0 
0.999668 0.0196127 0.0 
0.977966 0.011226 0.0 
0.930357 0.068716 0.0 
0.976654 0.0257443 0.0 
0.852189 0.28512 0.0 
0.549102 -0.0573598 0.0 
0.284662 -0.0456464 0.0 
0.968236 0.0135048 0.0 
0.974841 0.0121316 0.0 
1.05445 0.20445 0.0 
0.378527 -0.0564902 0.0 
0.939902 0.0209956 0.0 
1.03584 -0.0378378 0.0 
0.983174 0.245708 0.0 
0.999214 0.0136886 0.0 
0.922604 0.0818285 0.0 
0.972336 0.0310423 0.0 
0.930215 0.143282 0.0 
0.960897 0.155949 0.0 
1.00901 0.255082 0.0 
0.767358 -0.0507223 0.0 
0.937479 -0.0523429 0.0 
1.11094 0.0605301 0.0 
0.470278 0.0935612 0.0 
0.926619 -0.059667 0.0 
0.167637 -0.0105915 0.0 
0.899199 -0.012868 0.0 
0.750568 0.135793 0.0 
0.915348 -0.0664362 0.0 
0.922418 -0.0561571 0.0 
0.615631 0.165151 0.0 
1.04795 0.00693427 0.0 
0.940983 0.173363 0.0 
0.879795 -0.00492058 0.0 
0.928528 -0.0537364 0.0 
1.03767 -0.0068756 0.0 
0.341718 0.0414618 0.0 
1.03575 -0.00955692 0.0 
0.866187 0.00740932 0.0 
0.89831 0.217196 0.0 
1.04461 -0.0010504 0.0 
0.906923 -0.0881031 0.0 
0.922696 0.182634 0.0 
0.358698 -0.0589933 0.0 
1.12438 0.063708 0.0 
1.03567 0.169795 0.0 
0.831515 0.380831 0.0 
1.1021 0.164438 0.0 
1.06456 0.259609 0.0 
1.00835 -0.06246 0.0 
0.762668 -0.11474 0.0 
0.977768 0.0333412 0.0 
0.525024 0.0617629 0.0 
0.918674 -0.0526544 0.0 
1.04188 0.0666737 0.0 
0.252773 -0.0147439 0.0 
1.04406 0.263485 0.0 
1.05475 0.0402149 0.0 
0.879097 0.105303 0.0 
1.00506 0.0219153 0.0 
0.892836 0.0669706 0.0 
0.203442 -0.00586754 0.0 
0.853387 0.0764233 0.0 
0.949476 0.0368862 0.0 
0.947335 0.00389161 0.0 
1.17209 -0.0367176 0.0 
0.763882 0.335373 0.0 
0.847747 0.0891409 0.0 
1.02799 0.0728775 0.0 
1.082 -0.0947467 0.0 
0.921335 -0.0468868 0.0 
1.04031 0.271725 0.0 
0.964764 0.0168971 0.0 
0.995584 0.040379 0.0 
0.910336 0.0770376 0.0 
0.924653 0.112653 0.0 
0.910743 0.0354395 0.0 
1.00913 0.027673 0.0 
0.919892 0.10597 0.0 
0.917524 0.220824 0.0 
0.999143 0.0127762 0.0 
1.09157 -0.0700152 0.0 
0.373433 -0.0624929 0.0 
1.05425 0.250934 0.0 
0.966247 0.20298 0.0 
0.807209 0.151261 0.0 
0.827073 0.0382132 0.0 
0.886365 0.0298546 0.0 
1.04229 0.305107 0.0 
0.999534 0.0174512 0.0 
1.12466 0.139297 0.0 
1.03321 0.226272 0.0 
0.886703 -0.0483355 0.0 
0.922974 -0.00191611 0.0 
0.858478 0.158422 0.0 
0.911006 0.0206714 0.0 
0.885255 0.0148657 0.0 
0.932561 -0.046057 0.0 
0.934264 0.207222 0.0 
0.995602 0.0304478 0.0 
0.999522 0.0149598 0.0 
0.167221 -0.00514064 0.0 
0.147122 8.74975e-05 0.0 
0.912966 0.0277836 0.0 
0.527265 0.153688 0.0 
1.03647 -0.00829387 0.0 
0.921892 -0.0163705 0.0 
0.977994 -0.000955238 0.0 
0.902696 0.0765058 0.0 
0.842019 0.00673398 0.0 
1.08145 -0.0664423 0.0 
0.955067 0.00799649 0.0 
0.975544 0.00913768 0.0 
1.08436 0.26753 0.0 
0.293575 -0.0455988 0.0 
0.930752 0.300211 0.0 
0.973008 0.00266233 0.0 
0.988727 0.0541961 0.0 
1.06898 -0.229031 0.0 
0.968985 0.00470353 0.0 
0.961736 0.012578 0.0 
0.997693 0.0133591 0.0 
1.03639 -0.00918344 0.0 
0.800203 0.108144 0.0 
0.904524 0.0184087 0.0 
0.990944 0.00547781 0.0 
1.02853 -0.182425 0.0 
0.995141 0.0155432 0.0 
0.935527 0.0241346 0.0 
0.812109 0.168052 0.0 
0.95 -0.00847475 0.0 
0.99811 0.0102208 0.0 
0.938762 0.0047361 0.0 
0.189007 0.128506 0.0 
0.943873 -0.00837995 0.0 
1.06317 -0.00920543 0.0 
0.954062 0.28864 0.0 
0.109945 0.0132324 0.0 
1.10157 0.254785 0.0 
0.988036 0.0149267 0.0 
0.951921 -0.144206 0.0 
0.968872 0.0018663 0.0 
0.959642 0.00916509 0.0 
0.959882 0.00456219 0.0 
0.544342 0.134874 0.0 
0.961915 0.00187982 0.0 
0.955991 -0.0135603 0.0 
0.65303 0.184201 0.0 
1.03331 -0.0129724 0.0 
1.0332 0.0456826 0.0 
0.997525 0.265805 0.0 
0.980987 0.0209063 0.0 
0.975408 0.0290954 0.0 
0.964688 0.00395951 0.0 
0.893549 0.012928 0.0 
0.958934 -0.0178625 0.0 
0.117756 0.00133033 0.0 
0.968727 -0.000201649 0.0 
1.05762 0.0171161 0.0 
0.876339 0.167986 0.0 
0.996465 0.01214 0.0 
1.06245 0.0269481 0.0 
1.05697 0.0947705 0.0 
1.10195 -0.0700766 0.0 
1.09607 0.104387 0.0 
0.976548 -0.00292582 0.0 
0.877 0.182938 0.0 
0.996607 0.0145657 0.0 
0.996936 0.0112162 0.0 
0.890221 -0.04121 0.0 
0.978654 0.0258695 0.0 
1.16417 -0.226648 0.0 
0.697476 0.012142 0.0 
0.942092 0.0415671 0.0 
1.01764 0.302522 0.0 
0.908633 0.353176 0.0 
0.839234 0.132056 0.0 
1.15889 0.0735775 0.0 
0.154226 0.134122 0.0 
1.01875 0.289465 0.0 
1.06686 0.265626 0.0 
1.03743 -0.00638414 0.0 
0.938922 0.094173 0.0 
0.0541955 0.010874 0.0 
1.17626 0.146243 0.0 
0.977742 0.0319606 0.0 
0.910139 0.121978 0.0 
1.12728 0.219316 0.0 
0.851585 0.124243 0.0 
-0.0377411 -0.0189654 0.0 
0.978838 0.0300948 0.0 
0.92522 0.0735876 0.0 
0.74708 0.140296 0.0 
0.979684 0.0268381 0.0 
0.911936 0.150039 0.0 
0.995855 0.0126211 0.0 
0.903265 0.101412 0.0 
0.979175 0.0280072 0.0 
0.854107 0.0555999 0.0 
0.831253 0.022475 0.0 
0.90442 0.164106 0.0 
0.998744 0.0114764 0.0 
0.968925 -0.00468033 0.0 
0.98015 0.0251797 0.0 
0.999064 0.0177236 0.0 
0.962771 -0.00471549 0.0 
0.961732 -0.00839329 0.0 
0.966226 -0.00416986 0.0 
0.93854 -0.0414255 0.0 
0.925988 0.0580919 0.0 
0.926604 0.0880475 0.0 
1.03874 -0.00167224 0.0 
0.989686 0.0321576 0.0 
1.06112 0.0282359 0.0 
0.999155 0.0146231 0.0 
1.0762 -0.00548834 0.0 
1.00498 0.0798805 0.0 
0.94977 0.013303 0.0 
0.9769 0.0271724 0.0 
1.05006 -0.160701 0.0 
1.10209 0.242662 0.0 
1.12484 0.230834 0.0 
0.933733 -0.032189 0.0 
0.999049 0.0141494 0.0 
0.951258 0.0109589 0.0 
0.996352 0.0137116 0.0 
0.979586 0.00541908 0.0 
1.05338 0.0107019 0.0 
1.04897 -0.171413 0.0 
0.0999159 0.0119175 0.0 
0.668148 0.136627 0.0 