<VTKFile type="UnstructuredGrid" version="0.1" byte_order="LittleEndian">
  <UnstructuredGrid>
    <Piece NumberOfPoints="23363" NumberOfCells="46608">
      <Points>
        <DataArray type = "Float64" NumberOfComponents="3" format="ascii">
-5 -7 0.0 
15.5 -7 0.0 
15.5 7 0.0 
-5 7 0.0 
3.18355 0.169963 0.0 
0.744743 -0.0245507 0.0 
-0.710082 0.3737 0.0 
3.54957 0.925901 0.0 
0.673904 -0.460293 0.0 
0.00357444 0.0170209 0.0 
4.31989 -1.69487 0.0 
2.39705 2.2728 0.0 
-0.895939 -2.86691 0.0 
2.40837 0.46912 0.0 
4.59058 -0.621464 0.0 
2.55179 1.01725 0.0 
4.61399 0.0713575 0.0 
4.24135 -0.223975 0.0 
0.120658 -0.0372114 0.0 
1.53551 -0.916129 0.0 
0.901939 2.91828 0.0 
-0.612495 -0.236684 0.0 
4.99259 -4.54755 0.0 
0.780345 -0.0266691 0.0 
3.45113 0.173009 0.0 
2.42109 -0.214438 0.0 
5.19146 0.585715 0.0 
0.566652 0.0897206 0.0 
-2.04169 2.27506 0.0 
8.37805 0.0277781 0.0 
1.55666 1.53218 0.0 
4.54256 4.34305 0.0 
0.307839 -3.51724 0.0 
2.19809 0.543599 0.0 
0.107351 0.924395 0.0 
-0.60249 0.408637 0.0 
0.162666 0.101807 0.0 
0.818564 0.0186712 0.0 
2.11482 0.243429 0.0 
7.28044 -0.676414 0.0 
4.75694 -0.287149 0.0 
3.18769 0.747325 0.0 
-0.554592 0.912013 0.0 
0.329707 -1.13269 0.0 
6.64097 1.71952 0.0 
2.24937 0.909197 0.0 
0.952447 -0.00545261 0.0 
0.704537 -1.22188 0.0 
-3.0161 0.308062 0.0 
2.83064 -0.121165 0.0 
4.58296 0.80603 0.0 
0.342706 -0.0445613 0.0 
3.53841 -4.17652 0.0 
4.09726 0.29417 0.0 
-2.78976 -0.608246 0.0 
0.245902 0.0445196 0.0 
0.98182 -0.00234488 0.0 
0.312588 -0.045315 0.0 
0.162793 0.0714252 0.0 
-1.16192 2.59577 0.0 
0.947784 -0.00635413 0.0 
15.5 5.74627 0.0 
0.905726 -0.012091 0.0 
2.59426 -1.05095 0.0 
0.913668 0.886882 0.0 
0.373201 0.0634108 0.0 
1.84164 -0.788891 0.0 
0.817571 -0.0182051 0.0 
1.31668 0.686478 0.0 
1.9638 0.17137 0.0 
-2.49719 3.29173 0.0 
-0.334695 -0.59899 0.0 
-1.06701 4.99404 0.0 
0.104646 -0.0359396 0.0 
2.85582 -1.29091 0.0 
-2.46645 1.8403 0.0 
-4.4386 0.211068 0.0 
-0.117446 0.782219 0.0 
6.95684 -2.1689 0.0 
-0.727497 -1.11308 0.0 
5.32983 -2.66539 0.0 
-0.735268 0.973456 0.0 
-2.24077 0.751408 0.0 
4.69545 -1.4105 0.0 
5.2637 0.829009 0.0 
0.474289 0.0410955 0.0 
4.18635 0.578246 0.0 
0.881069 0.019758 0.0 
4.22485 0.361379 0.0 
1.74304 -1.16672 0.0 
-1.99337 -6.54339 0.0 
-0.897961 -1.21087 0.0 
6.03814 0.519242 0.0 
4.46587 -0.160323 0.0 
3.42216 0.888527 0.0 
3.00792 -0.733911 0.0 
0.431538 -0.0463053 0.0 
1.95618 -0.900845 0.0 
0.813531 0.01865 0.0 
1.7464 -0.313211 0.0 
1.02723 -0.0221506 0.0 
0.154229 -0.210612 0.0 
4.95981 1.28089 0.0 
3.29459 1.04115 0.0 
1.20256 -1.51503 0.0 
0.611521 -0.0348414 0.0 
1.6323 0.444164 0.0 
0.105602 -0.0356587 0.0 
2.37201 0.562293 0.0 
5.72095 0.794109 0.0 
0.434749 -0.0654113 0.0 
0.404053 -0.0510612 0.0 
3.87079 -0.00723506 0.0 
0.920555 -0.00873148 0.0 
0.611398 -0.0418877 0.0 
6.54424 2.96551 0.0 
0.298395 0.045412 0.0 
0.381016 -0.139498 0.0 
-0.0127712 -0.363675 0.0 
-1.11211 0.450976 0.0 
5.70107 0.103025 0.0 
2.56821 1.18202 0.0 
1.94198 0.759367 0.0 
-0.767916 -1.36647 0.0 
6.26558 3.27619 0.0 
0.393758 0.0433312 0.0 
1.03918 -3.7326 0.0 
2.98196 -2.19664 0.0 
-0.723337 0.659752 0.0 
0.769751 0.0257312 0.0 
-0.0432695 -0.11786 0.0 
1.77324 0.00772123 0.0 
0.0285682 0.173596 0.0 
3.56944 0.143615 0.0 
5.16625 -0.902404 0.0 
0.425461 -0.0460145 0.0 
1.38609 -0.847178 0.0 
0.520909 -0.0389841 0.0 
4.55484 0.54821 0.0 
1.4616 0.543244 0.0 
-1.51227 -3.24022 0.0 
0.195347 -0.0434187 0.0 
0.773677 0.0218742 0.0 
2.8431 0.557929 0.0 
0.716175 0.028287 0.0 
2.39889 -2.99953 0.0 
-0.51449 -0.450123 0.0 
0.258525 0.0466297 0.0 
4.25711 0.659543 0.0 
-2.40935 0.24635 0.0 
0.709715 0.026853 0.0 
0.461961 -0.0451465 0.0 
4.33861 1.14821 0.0 
1.20554 -2.71579 0.0 
4.74695 -0.0834236 0.0 
-1.25611 -2.04971 0.0 
0.105046 -0.035758 0.0 
4.33429 0.977449 0.0 
5.09236 -1.028 0.0 
3.17292 -0.964184 0.0 
0.783705 -0.0213671 0.0 
-0.696512 0.213324 0.0 
0.694681 -1.0517 0.0 
2.0986 0.950783 0.0 
-0.144149 -1.14963 0.0 
5.98059 -0.0630815 0.0 
0.272064 0.0469145 0.0 
7.58514 -1.24129 0.0 
0.163388 0.0413523 0.0 
1.3889 0.372075 0.0 
4.27843 -0.00377209 0.0 
0.744189 -0.0244378 0.0 
2.79687 -2.66962 0.0 
0.653549 0.0309269 0.0 
2.68167 3.30593 0.0 
0.794288 0.0215449 0.0 
-2.47477 1.26123 0.0 
5.09925 -1.86304 0.0 
-0.466599 0.560973 0.0 
-0.330097 -1.0788 0.0 
5.7239 -0.911637 0.0 
3.61674 6.08518 0.0 
0.362692 0.525858 0.0 
3.19883 0.102832 0.0 
0.22945 2.81099 0.0 
0.641973 0.0318816 0.0 
7.10696 -3.51522 0.0 
1.0976 -0.906533 0.0 
-0.983346 0.0960112 0.0 
3.69587 0.974536 0.0 
0.43894 0.0460078 0.0 
5.1257 0.97087 0.0 
-0.622535 0.30182 0.0 
-1.56092 3.32284 0.0 
5.43119 -0.717194 0.0 
5.33983 1.75066 0.0 
-1.42733 7 0.0 
0.910732 -0.0118628 0.0 
2.4817 0.280534 0.0 
3.13538 2.12501 0.0 
0.361087 0.0547235 0.0 
5.82914 1.78028 0.0 
-0.821698 0.503315 0.0 
0.290106 -0.049867 0.0 
4.75976 3.94984 0.0 
1.82454 0.70259 0.0 
-1.63339 5.68418 0.0 
0.566444 0.0366038 0.0 
2.31934 -1.53538 0.0 
0.25718 0.0458892 0.0 
2.57004 -1.3673 0.0 
3.63568 -1.99783 0.0 
0.530012 -0.039092 0.0 
0.649549 -0.0431496 0.0 
4.32836 0.47074 0.0 
0.655561 0.817909 0.0 
3.18094 -0.81054 0.0 
-0.426085 0.78836 0.0 
0.863499 0.0220645 0.0 
3.9173 -2.64737 0.0 
1.81616 0.825568 0.0 
5.21321 -0.3675 0.0 
5.05131 -2.3443 0.0 
2.76676 -0.692798 0.0 
0.523287 -0.0392515 0.0 
-0.334864 -1.48154 0.0 
-0.686158 0.502283 0.0 
1.92641 0.64398 0.0 
0.731698 -0.0325633 0.0 
0.856785 -0.0286247 0.0 
7.15765 -0.0187663 0.0 
0.379531 -0.0439182 0.0 
4.50834 1.24285 0.0 
5.04618 1.12251 0.0 
-2.75505 1.07417 0.0 
-0.376301 0.599203 0.0 
3.44752 -0.852391 0.0 
0.698623 0.0279606 0.0 
0.121194 0.0455902 0.0 
5.716 0.456114 0.0 
0.808472 1.96142 0.0 
6.81304 0.755503 0.0 
-0.0582398 -0.866136 0.0 
7.71188 -2.96547 0.0 
-3.53705 1.25281 0.0 
0.465882 -0.0460405 0.0 
2.68677 1.09402 0.0 
0.248043 0.0606486 0.0 
5.1925 -0.455267 0.0 
4.24047 0.492028 0.0 
0.110835 -0.0368906 0.0 
-4.31281 0.610337 0.0 
5.32607 -0.517305 0.0 
0.295832 0.0451375 0.0 
1.6222 -1.05255 0.0 
4.61321 0.946391 0.0 
1.26604 -1.76966 0.0 
13.473 0.899641 0.0 
0.616902 -0.0332103 0.0 
0.809136 -0.975967 0.0 
4.51167 -3.90486 0.0 
3.31578 -0.147805 0.0 
-1.70514 0.742376 0.0 
0.140221 -0.0404193 0.0 
-2.86794 -1.50104 0.0 
-3.9925 0.39875 0.0 
0.688043 -0.0283487 0.0 
0.41163 0.0431436 0.0 
0.070736 0.0310864 0.0 
0.60708 -0.0352384 0.0 
5.6406 -0.275737 0.0 
6.11037 -2.86662 0.0 
-1.04888 -2.63871 0.0 
-1.14969 -3.07497 0.0 
1.73323 -4.24468 0.0 
-1.4039 -0.0451297 0.0 
6.09745 -0.766074 0.0 
0.273565 -0.0568202 0.0 
-1.09339 -0.536899 0.0 
0.00345425 -2.89962 0.0 
6.81416 0.1292 0.0 
0.517155 -0.0432512 0.0 
6.01276 1.28167 0.0 
13.9816 4.77172 0.0 
0.28396 -0.0453167 0.0 
2.88058 -0.741008 0.0 
7.84664 -1.16271 0.0 
2.15075 -1.20416 0.0 
3.54818 -1.20239 0.0 
0.473618 -0.0401675 0.0 
14.87 -0.029199 0.0 
1.00775 4.0316 0.0 
0.974025 -0.0409629 0.0 
8.22526 -4.8738 0.0 
0.887209 -0.544502 0.0 
0.998481 -0.832441 0.0 
0.568923 0.0364122 0.0 
0.727782 0.0259556 0.0 
5.48092 1.38943 0.0 
-1.83845 -0.200487 0.0 
4.07801 1.29724 0.0 
2.08625 -0.925211 0.0 
0.0620809 -0.817764 0.0 
5.27023 -0.626315 0.0 
0.912606 -0.011047 0.0 
5.49899 -0.273558 0.0 
3.90043 4.10085 0.0 
0.0225377 3.95803 0.0 
5.21047 -0.750396 0.0 
-0.521178 -1.1139 0.0 
-4.44721 3.72648 0.0 
1.36924 0.584406 0.0 
-0.253096 1.92927 0.0 
3.93985 2.09146 0.0 
0.774692 0.0307712 0.0 
-2.02904 3.58675 0.0 
3.2496 -2.26857 0.0 
5.32949 -0.773983 0.0 
2.23867 1.77032 0.0 
1.10652 -1.9489 0.0 
0.312913 -0.0849242 0.0 
0.0172552 -0.0162453 0.0 
9.45979 0.781166 0.0 
6.74235 6.39225 0.0 
4.68058 2.94067 0.0 
15.5 -1.66279 0.0 
3.62151 -1.55948 0.0 
0.397477 0.0436231 0.0 
0.657063 -2.70441 0.0 
-1.28443 -4.02214 0.0 
2.83372 -3.64336 0.0 
5.09615 0.78562 0.0 
0.555374 0.97002 0.0 
4.12345 -0.30452 0.0 
1.90219 2.04198 0.0 
6.28646 5.2043 0.0 
0.144398 2.14983 0.0 
0.956097 0.00557641 0.0 
5.95507 -1.30786 0.0 
5.28508 -1.41701 0.0 
0.432992 -1.28321 0.0 
0.23712 -0.0595424 0.0 
5.60263 1.58075 0.0 
0.664231 0.0303894 0.0 
0.386978 2.29806 0.0 
5.26558 1.13033 0.0 
-3.13271 -2.17991 0.0 
2.1442 -1.39367 0.0 
-0.206047 6.45275 0.0 
-4.12487 -2.83898 0.0 
5.83445 0.975451 0.0 
4.31721 4.04332 0.0 
3.07279 0.575238 0.0 
0.608711 -0.0348912 0.0 
4.43117 3.64632 0.0 
3.19622 -1.06892 0.0 
1.75502 -1.91759 0.0 
8.9956 3.97791 0.0 
11.4173 3.59115 0.0 
0.696639 0.0581677 0.0 
1.37197 -0.474784 0.0 
4.33724 -6.58225 0.0 
-1.74472 1.55061 0.0 
1.56045 1.14697 0.0 
13.9459 -3.10045 0.0 
-1.52858 0.284609 0.0 
0.106452 0.0364003 0.0 
-0.919681 0.994772 0.0 
3.52309 1.62761 0.0 
3.72888 -0.862891 0.0 
1.42118 -3.00108 0.0 
-1.07301 -6.0599 0.0 
1.40469 -0.738384 0.0 
4.95271 -3.62788 0.0 
5.40941 0.71042 0.0 
0.0146518 -0.0153777 0.0 
2.39027 0.982076 0.0 
-3.0083 2.64591 0.0 
1.14279 -1.05216 0.0 
1.71616 -3.85788 0.0 
0.980652 -1.61171 0.0 
1.25891 -2.13878 0.0 
-1.36365 -0.87363 0.0 
0.610031 -0.0346186 0.0 
-0.557188 -0.335255 0.0 
0.541448 -2.2265 0.0 
-0.545654 0.489578 0.0 
7.26064 2.03351 0.0 
0.604301 1.12738 0.0 
5.57108 -0.830566 0.0 
2.68815 -1.19547 0.0 
6.2361 -1.41474 0.0 
1.66026 2.81597 0.0 
-0.477172 -3.29624 0.0 
10.0245 -3.30748 0.0 
5.02743 0.40075 0.0 
0.0402966 -0.0250356 0.0 
0.107464 -0.044637 0.0 
14.2747 6.40505 0.0 
3.98603 -3.11015 0.0 
-3.89751 -1.54046 0.0 
-1.64818 0.0546894 0.0 
-1.42996 0.459698 0.0 
2.46657 -2.69838 0.0 
0.0143401 -0.0718848 0.0 
0.0999988 0.0356153 0.0 
0.774483 0.0260124 0.0 
-0.979663 -0.741265 0.0 
-3.94398 -5.64295 0.0 
5.3254 1.99652 0.0 
0.351769 -1.60556 0.0 
8.56083 -0.889949 0.0 
1.95068 -1.23123 0.0 
-3.91942 4.62704 0.0 
0.247881 -0.0952808 0.0 
-1.06096 -1.19217 0.0 
4.79818 -5.95027 0.0 
-3.24218 -1.28865 0.0 
0.663356 0.0302614 0.0 
1.24529 -0.90962 0.0 
2.7168 0.0441524 0.0 
-0.782758 -0.876825 0.0 
5.78736 -1.72714 0.0 
2.23835 1.05059 0.0 
-0.788002 4.00714 0.0 
0.203486 0.0442897 0.0 
2.90626 -1.72723 0.0 
0.709537 0.0263426 0.0 
5.97351 -3.18221 0.0 
2.38312 -0.608132 0.0 
[...]
<PointData>
  <DataArray type = "Float64" Name="VitesseP1" NumberOfComponents="3" format="ascii">
1 0 0.0 
1.00005 0 0.0 
1.00006 0 0.0 
1 0 0.0 
0.999959 -0.000399881 0.0 
0.00659585 0.000379697 0.0 
0.991995 0.00697148 0.0 
1.00134 -0.000695756 0.0 
1.02664 0.0131939 0.0 
0.715663 0.397513 0.0 
1.00145 0.000456111 0.0 
1.00205 -0.000929416 0.0 
1.00134 -0.00151161 0.0 
1.00012 -0.00169359 0.0 
1.00157 0.000323123 0.0 
1.00119 -0.00172131 0.0 
0.945219 -0.000681391 0.0 
1.00107 0.000247644 0.0 
0 0 0.0 
1.00276 0.00525037 0.0 
1.00244 0.000282832 0.0 
0.987943 -0.00690957 0.0 
1.00088 6.33842e-05 0.0 
0.239552 0.0184533 0.0 
1.00014 -0.00036622 0.0 
0.999876 0.00115983 0.0 
1.00163 -0.000308683 0.0 
1.06984 -0.0401091 0.0 
1.0003 0.00147738 0.0 
0.984554 0.000106435 0.0 
1.00369 -0.00221764 0.0 
1.00095 -0.000103272 0.0 
1.00174 -0.00061435 0.0 
0.999958 -0.00242334 0.0 
1.01038 0.00888083 0.0 
0.991772 0.00942622 0.0 
1.09664 0.0855601 0.0 
0.0100541 -0.000604832 0.0 
0.998534 -0.00193365 0.0 
1.00361 0.0012307 0.0 
1.00159 0.000228871 0.0 
1.00113 -0.000866853 0.0 
1.00005 0.00845899 0.0 
1.00978 -0.0036976 0.0 
1.00119 -0.000601148 0.0 
1.00109 -0.00241153 0.0 
0 0 0.0 
1.00873 0.000627605 0.0 
0.999436 0.000227292 0.0 
1.0102 0.000568942 0.0 
1.00155 -0.00034163 0.0 
0 0 0.0 
1.0011 0.000229605 0.0 
1.00136 -0.000281207 0.0 
0.999345 -0.00053849 0.0 
0 0 0.0 
1.05035e-09 9.75255e-10 0.0 
0.0147069 0.000115246 0.0 
1.11673 0.0919479 0.0 
1.00109 0.00176872 0.0 
0.00314645 0.000306173 0.0 
1.00005 -3.11621e-05 0.0 
0.0475754 0.00422355 0.0 
1.00131 0.00167555 0.0 
1.01032 -0.00574667 0.0 
1.07046 -0.00770768 0.0 
1.00101 0.00410847 0.0 
0 0 0.0 
1.00323 -0.00878848 0.0 
0.997493 -0.00215326 0.0 
1.00029 0.000813156 0.0 
0.998448 -0.015506 0.0 
1.00063 0.000420327 0.0 
8.62112e-08 -1.01248e-08 0.0 
1.00135 0.00130457 0.0 
0.99993 0.00122179 0.0 
0.999953 3.16303e-05 0.0 
1.00631 0.0136651 0.0 
1.00111 0.000544208 0.0 
1.00019 -0.00603239 0.0 
1.00118 0.000217592 0.0 
0.999401 0.00646136 0.0 
0.99896 0.00106946 0.0 
1.00139 0.00037741 0.0 
1.00155 -0.000347562 0.0 
5.64565e-08 -3.70626e-09 0.0 
1.00146 -0.000362725 0.0 
0.284719 -0.0242322 0.0 
1.00138 -0.000292227 0.0 
1.00267 0.00335098 0.0 
1.0003 -8.03608e-05 0.0 
1.00009 -0.00490912 0.0 
0.999927 -0.000498995 0.0 
1.00567 0.0001662 0.0 
1.00131 -0.000761995 0.0 
1.00097 0.00105194 0.0 
0.267158 0.00839167 0.0 
1.00131 0.00344173 0.0 
0 0 0.0 
0.997188 0.00448422 0.0 
0.580332 0.0675908 0.0 
1.05403 -0.060633 0.0 
1.00143 -0.000328401 0.0 
1.00127 -0.000883035 0.0 
1.00484 0.00196785 0.0 
0.0590927 0.00370601 0.0 
0.998447 -0.00617083 0.0 
0 0 0.0 
1.00023 -0.00191179 0.0 
1.00172 -0.000121586 0.0 
1.07681 0.0219667 0.0 
0.575136 0.0129498 0.0 
0.874351 7.09526e-05 0.0 
0 0 0.0 
0.474289 0.0274344 0.0 
1.00099 -0.000308555 0.0 
0.0154774 0.00017474 0.0 
1.0849 -0.000510456 0.0 
1.0091 -0.0400029 0.0 
0.995469 0.00336386 0.0 
0.958644 -0.00686007 0.0 
1.00135 -0.00165159 0.0 
1.00078 -0.00362078 0.0 
1.00104 -0.00483726 0.0 
1.00098 -0.000231808 0.0 
0 0 0.0 
1.00168 -0.000202793 0.0 
1.00169 0.000856197 0.0 
0.996419 0.0077705 0.0 
0.148983 -0.0115371 0.0 
0.952801 -0.0943899 0.0 
0.756926 -0.00078538 0.0 
1.00933 0.0912419 0.0 
1.00605 -0.000282299 0.0 
1.00158 0.000353179 0.0 
0.231393 0.0071903 0.0 
1.00364 0.00659072 0.0 
0.00871688 0.000361208 0.0 
1.00155 -0.00030321 0.0 
1.00011 -0.00838251 0.0 
1.00077 -0.00114654 0.0 
0.0485212 -0.00270112 0.0 
0 0 0.0 
1.00074 -0.00107852 0.0 
0.0800529 -0.00563323 0.0 
1.00178 0.000496571 0.0 
0.992588 -0.0118653 0.0 
0.18024 0.00280813 0.0 
1.00148 -0.000366779 0.0 
0.998799 0.000319946 0.0 
0 0 0.0 
0.252735 0.00957502 0.0 
1.0014 -0.000429219 0.0 
1.00267 7.24419e-05 0.0 
0.958951 0.000655126 0.0 
1.00083 -0.00238766 0.0 
0 0 0.0 
1.00145 -0.000405342 0.0 
1.00152 0.000366961 0.0 
1.00126 0.000990376 0.0 
7.87019e-07 5.38332e-08 0.0 
0.98917 0.00486411 0.0 
1.01081 0.00147302 0.0 
1.0013 -0.00279958 0.0 
1.00531 -0.00732666 0.0 
0.955319 0.00233952 0.0 
0.186399 0.00133631 0.0 
1.00057 0.00108164 0.0 
1.68684e-07 2.03053e-08 0.0 
0.996964 -0.0105955 0.0 
0.884887 0.000147853 0.0 
1.04987e-07 7.44408e-09 0.0 
1.00172 0.000663628 0.0 
1.00876e-08 -4.14467e-10 0.0 
1.00155 -0.000390574 0.0 
0.0444464 -0.00296489 0.0 
0.999553 0.00115765 0.0 
1.00138 0.000317803 0.0 
0.995556 0.0127612 0.0 
1.00313 -0.00803176 0.0 
1.00175 7.9991e-05 0.0 
1.00078 -4.00848e-05 0.0 
1.02941 0.00812396 0.0 
1.00293 -0.000887144 0.0 
1.00243 0.00101406 0.0 
0.00893317 -0.000671715 0.0 
1.00081 0.000326717 0.0 
1.00738 0.00650994 0.0 
0.992662 0.00103656 0.0 
1.00135 -0.000628009 0.0 
0.259715 -0.00839881 0.0 
1.00151 -0.000292109 0.0 
0.989513 0.00783733 0.0 
1.00072 0.00108131 0.0 
1.00167 0.000381286 0.0 
1.0014 -0.000287664 0.0 
1.00038 0 0.0 
0.055174 0.00529917 0.0 
0.999679 -0.00119 0.0 
1.0016 -0.000817505 0.0 
0.789631 -0.00759624 0.0 
1.00132 -0.000336116 0.0 
0.994519 0.00628311 0.0 
0.457948 -0.00403184 0.0 
1.00101 -0.00011513 0.0 
1.00057 -0.00432053 0.0 
1.00042 0.000250084 0.0 
0.009499 -0.000869551 0.0 
1.00194 0.00173795 0.0 
0.105413 0.0009927 0.0 
1.00153 0.00159 0.0 
1.00151 0.000671338 0.0 
0.0392943 0.00160754 0.0 
0.626697 0.0379855 0.0 
1.0015 -0.000310869 0.0 
1.01524 -0.00289107 0.0 
1.00114 0.000931413 0.0 
0.999989 0.0109856 0.0 
0.325933 -0.0268919 0.0 
1.00138 0.000462398 0.0 
1.00127 -0.00413273 0.0 
1.00189 0.000173644 0.0 
1.0013 0.000257325 0.0 
1.00082 0.00132292 0.0 
0.0290767 0.000648226 0.0 
1.00324 -0.00488826 0.0 
0.993957 0.00817388 0.0 
1.00013 -0.00373576 0.0 
0.367363 0.0262528 0.0 
0.560754 0.044376 0.0 
0.97274 0.00172862 0.0 
0 0 0.0 
1.00141 -0.000386668 0.0 
1.00143 -0.000321854 0.0 
0.999528 0.000845193 0.0 
0.997621 0.0145282 0.0 
1.00127 0.000758794 0.0 
0.00560701 -0.00055161 0.0 
1.02705 0.12112 0.0 
0.997782 -0.00205906 0.0 
1.00435 0.000134223 0.0 
1.00125 -0.000552422 0.0 
1.00771 -0.0114548 0.0 
1.00076 0.00052239 0.0 
0.999861 0.00043921 0.0 
0.328981 0.0124887 0.0 
1.00128 -0.0015103 0.0 
1.10431 0.0390224 0.0 
1.00159 0.000340837 0.0 
1.00149 -0.000330084 0.0 
0.0420269 -0.00301628 0.0 
0.999954 9.64313e-05 0.0 
1.00137 0.000729651 0.0 
9.77035e-09 4.35717e-10 0.0 
1.00306 0.00422696 0.0 
1.0015 -0.000349297 0.0 
1.00434 0.00126076 0.0 
0.999832 -9.84435e-05 0.0 
0 0 0.0 
1.01075 0.00352575 0.0 
1.00103 0.000152732 0.0 
1.00412 0.000396514 0.0 
0.998217 0.00195933 0.0 
0.139831 -0.0107275 0.0 
0.999769 -0.000896738 0.0 
0.999887 0.000102878 0.0 
0 0 0.0 
0 0 0.0 
0.041093 0.00574383 0.0 
0.0668764 0.00318855 0.0 
1.01192 -0.00236624 0.0 
1.00106 0.000258974 0.0 
1.00122 -0.00175102 0.0 
1.00104 -0.00132456 0.0 
1.00134 1.13904e-05 0.0 
0.996 -0.000272253 0.0 
1.0009 0.000808952 0.0 
0.985367 -0.022076 0.0 
0.995963 -0.00390402 0.0 
1.00217 -0.00112376 0.0 
0.96742 -0.00336724 0.0 
0.272219 0.012481 0.0 
1.00128 -0.000525682 0.0 
1.00008 -8.76421e-05 0.0 
0.0171389 0.000315108 0.0 
1.0009 0.00119411 0.0 
1.00061 0.000876419 0.0 
1.00178 0.0023923 0.0 
1.00135 0.000766811 0.0 
0 0 0.0 
0.999916 -7.27053e-06 0.0 
1.00146 0.000209819 0.0 
0.922808 0.0678328 0.0 
1.00058 0.000215101 0.0 
1.01413 0.0148018 0.0 
1.00904 0.00734604 0.0 
0.0102521 -0.000553795 0.0 
0.0146741 -0.00108134 0.0 
1.00143 -0.00032823 0.0 
0.997727 -0.000600417 0.0 
1.00141 -0.000521256 0.0 
1.00122 0.00290304 0.0 
1.01093 -0.011683 0.0 
1.00176 0.000235394 0.0 
0.0340651 0.00318886 0.0 
1.0093 0.000273418 0.0 
1.00107 -0.000199819 0.0 
1.00133 0.000580707 0.0 
1.00154 0.000396799 0.0 
1.00148 -0.00707618 0.0 
1.00001 0.000142107 0.0 
1.00142 -0.00931788 0.0 
1.00297 0.00297969 0.0 
1.00142 -0.000534983 0.0 
0.422849 -0.0317441 0.0 
1.0005 0.000842572 0.0 
1.00158 0.000746358 0.0 
1.00157 0.000342321 0.0 
1.00218 -0.00148713 0.0 
1.00406 0.000663776 0.0 
1.10906 -0.0151314 0.0 
0 0 0.0 
1.00193 -0.00151663 0.0 
1.00068 -2.90591e-05 0.0 
1.00121 -0.00022873 0.0 
0.999954 4.42421e-05 0.0 
1.00145 0.000738726 0.0 
0 0 0.0 
1.00276 -0.000551739 0.0 
1.00076 -0.000756354 0.0 
1.0014 0.000320672 0.0 
1.0016 -0.000315254 0.0 
1.01292 0.000365082 0.0 
1.00133 0.000300943 0.0 
1.00261 -0.00119104 0.0 
1.00076 -7.08862e-05 0.0 
1.00352 0.00179551 0.0 
0.00390014 -0.000421424 0.0 
1.00122 0.000540457 0.0 
1.00138 0.000343098 0.0 
1.00839 -0.00198218 0.0 
1.09872 -0.0440878 0.0 
1.00141 -0.000354331 0.0 
0.00803372 -0.000351223 0.0 
1.0035 0.00111997 0.0 
1.00144 -0.000331988 0.0 
0.999995 -0.000754853 0.0 
1.00194 0.00212206 0.0 
1.00062 8.48383e-05 0.0 
1.00002 -0.000286251 0.0 
1.00136 -0.000640379 0.0 
1.00103 -0.000158998 0.0 
1.00094 -0.000860902 0.0 
0.0528676 0.00274791 0.0 
1.0011 -0.0001872 0.0 
1.0013 0.000995634 0.0 
1.00296 0.00137261 0.0 
1.00052 -0.000355056 0.0 
1.00016 -0.000291799 0.0 
1.0235 -0.0575603 0.0 
0.999628 0.0104761 0.0 
1.00071 1.31189e-05 0.0 
0.999808 0.00217498 0.0 
1.00335 -0.00384062 0.0 
0.999992 0.000118244 0.0 
0.996753 0.0011548 0.0 
0.0443995 0.00687773 0.0 
0.998893 0.00538655 0.0 
1.00155 -0.000759418 0.0 
1.00136 0.00060794 0.0 
1.00226 0.000139302 0.0 
1.0005 -0.000170104 0.0 
1.00294 0.00745771 0.0 
1.00104 0.000130049 0.0 
1.00168 -0.000183805 0.0 
0.0985706 -0.052554 0.0 
1.0012 -0.00204177 0.0 
1.00011 0.000760864 0.0 
1.00658 0.00473272 0.0 
1.00156 5.29929e-05 0.0 
1.00543 0.000917933 0.0 
1.00341 0.000606073 0.0 
0.998171 -0.00315844 0.0 
0.0418722 0.00237167 0.0 
0.989244 -0.00986411 0.0 
1.00371 -0.000922809 0.0 
0.993548 0.0110701 0.0 
1.00105 -0.000574798 0.0 
1.00981 0.000114614 0.0 
1.00171 0.000426523 0.0 
1.00134 0.0015194 0.0 
1.00123 0.000484732 0.0 
1.00229 -0.000353805 0.0 
1.00147 -0.00109117 0.0 
1.00028 0.000473181 0.0 
1.00162 -0.000269826 0.0 
0.134559 -0.033611 0.0 
1.07072 -0.142914 0.0 
1.00009 -2.18269e-05 0.0 
1.00126 0.000355621 0.0 
0.999952 -0.000362353 0.0 
0.997108 0.000196565 0.0 
0.996945 0.00200412 0.0 
1.00188 0.000659946 0.0 
0.969017 -0.191204 0.0 
0.0555519 0.00836781 0.0 
0.181289 -0.0140557 0.0 
0.997237 -0.00524478 0.0 
1.00005 -0.000106634 0.0 
1.00132 -0.000272291 0.0 
1.00588 -0.00210022 0.0 
1.00294 0.000842602 0.0 
1.00217 0.00274611 0.0 
1.00005 0.000198988 0.0 
1.10886 -0.0418761 0.0 
0.99959 -0.00428906 0.0 
1.00074 1.8119e-05 0.0 
0.999774 -0.000599087 0.0 
9.19354e-09 -6.7338e-10 0.0 
1.00544 0.00635773 0.0 
0.898996 -0.00121447 0.0 
0.998602 -0.00666323 0.0 
1.00128 0.000374348 0.0 
1.00138 -0.00236015 0.0 
1.00098 0.000735453 0.0 
0.108262 0.00368214 0.0 
1.00169 0.0011041 0.0 
0 0 0.0 
1.00101 0.000214867 0.0 
1.00041 0.00198097 0.0 
1.00118 -0.00037695 0.0 
0.999089 0.00140747 0.0 
0 0 0.0 
4.78374e-09 -6.40595e-10 0.0 
1.00085 0.000441089 0.0 
1.00146 -0.000652125 0.0 
1.00043 0.00028613 0.0 
0.999703 0.000725857 0.0 
1.00049 -0.000461517 0.0 
0.996493 0.00315773 0.0 
1.0014 0.000463572 0.0 
1.00219 -0.00172624 0.0 
1.00023 0.000617175 0.0 
1.00003 0.000136861 0.0 
0.999981 0.000347293 0.0 
1.01949 -0.00514907 0.0 
1.0016 -0.000310987 0.0 
0.998516 -0.00485683 0.0 
0.990822 0.00106351 0.0 
1.00139 0.000273773 0.0 
1.00139 0.000498371 0.0 
0.999801 0.0017194 0.0 
1.0036 -0.0015514 0.0 
1.00184 -1.65494e-05 0.0 
1.00001 -0.000145589 0.0 
0.999201 0.00127209 0.0 
1.00112 0.00122928 0.0 
0.999821 0.0016311 0.0 
0.996905 -0.000517129 0.0 
1.00118 0.000304129 0.0 
1.00777 -0.00811393 0.0 
1.00134 0.00055461 0.0 
1.00134 -0.000303078 0.0 
1.00032 0.00101352 0.0 
1.00144 -0.00030869 0.0 
1.00793 -0.00537983 0.0 
0.997488 0.000652115 0.0 
0.999879 0.000141774 0.0 
0.999899 -0.000686395 0.0 
1.00074 -2.51594e-05 0.0 
1.02136 -0.0164104 0.0 
1.00157 0.000321003 0.0 
1.00096 0.00134428 0.0 
1.00138 -0.000312322 0.0 
1.001 0.00118631 0.0 
0.999945 -0.000125323 0.0 
1.00116 -0.000111462 0.0 
1.00016 -0.00012318 0.0 
1.00075 -0.000315244 0.0 
1.00059 -0.000554274 0.0 
0.998106 0.00674235 0.0 
1.0069 -0.00256247 0.0 
1.00027 -0.000296053 0.0 
0.999705 -0.00113053 0.0 
1.00537 -0.00103362 0.0 
0.871906 0.0649724 0.0 
1.00052 -9.18037e-05 0.0 
0.0715483 0.00455925 0.0 
0.999764 0.000203349 0.0 
1.00154 0.00063085 0.0 
1.00114 0.000647409 0.0 
1.00132 0.000294228 0.0 
1.00234 -0.000916899 0.0 
1.00066 -7.11203e-05 0.0 
1.00143 0.000566924 0.0 
1.00131 0.000309271 0.0 
1.00639 -0.00582211 0.0 
1.01806 0.00414977 0.0 
0.997309 -0.00116925 0.0 
1.00152 -0.000393463 0.0 
1.00188 0.0653353 0.0 
1.00138 0.000528441 0.0 
0.992084 0.00145018 0.0 
1.00427 0.000161279 0.0 
1.00126 -0.000857862 0.0 
1.00005 5.12608e-05 0.0 
1.07737 -0.261864 0.0 
1.00006 -0.000107041 0.0 
0 0 0.0 
1.00206 -0.00209195 0.0 
1.00133 0.00032413 0.0 
1.00029 -0.000231254 0.0 
1.00171 -0.000913112 0.0 
1.0006 -0.000716094 0.0 
1.00064 -0.00178907 0.0 
1.00695 -0.00187082 0.0 
0.582702 0.00465809 0.0 
0.999967 -9.58988e-05 0.0 
1.0009 -0.000105502 0.0 
1.00021 0.000768502 0.0 
1.00009 -0.000353812 0.0 
1.00038 -9.51784e-05 0.0 
1.00153 -0.00078831 0.0 
1.0014 -0.000332942 0.0 
0.99998 0.000160263 0.0 
1.00732 0.00275454 0.0 
1.00175 -0.00134058 0.0 
0 0 0.0 
1.01507 0.0067362 0.0 
1.00159 0.000285723 0.0 
0.999879 -3.91687e-06 0.0 
1.00153 0.000357605 0.0 
1.00169 -0.00249062 0.0 
1.00088 0.00092489 0.0 
1.00094 0.00140693 0.0 
0.99663 0.00563937 0.0 
9.08335e-08 -4.51022e-08 0.0 
0.689176 0.00841332 0.0 
1.00101 0.000544232 0.0 
0.0541178 -0.00793091 0.0 
1.00127 -0.000893353 0.0 
1.00432 2.88788e-05 0.0 
1.00137 -0.00040468 0.0 
0.999881 -0.000505155 0.0 
1.00077 -0.000339708 0.0 
1.00406 0.00504396 0.0 
0.99331 -0.00072109 0.0 
1.00507 -0.0132929 0.0 
1.00176 -0.000315591 0.0 
1.00197 0.00113709 0.0 
0.655073 -0.0525723 0.0 
1.0008 0.000586888 0.0 
1.0001 0.000116355 0.0 
0.299042 0.02154 0.0 
1.99696e-08 8.06535e-11 0.0 
1.00142 -0.000714137 0.0 
1.00103 0.000906021 0.0 
1.00124 0.000146494 0.0 
1.00129 -0.000255535 0.0 
0.394282 -0.0242042 0.0 
0 0 0.0 
1.00228 5.55239e-05 0.0 
1.00149 -0.000538665 0.0 
0.998818 0.000415778 0.0 
1.00116 0.000212573 0.0 
1.03347 0.0447721 0.0 
0.035378 0.00161708 0.0 
1.00181 0.000405515 0.0 
0.999997 -0.000132714 0.0 
1.00148 -0.00202478 0.0 
0.99887 -0.00369718 0.0 
1.00166 -0.000381024 0.0 
1.02443 -0.023234 0.0 
1.00147 0.0011062 0.0 
1.00445 -0.0024531 0.0 
1.00136 -0.000514154 0.0 
1.00115 -0.000979608 0.0 
1.001 -0.00109484 0.0 
0.591763 0.0399183 0.0 
1.00055 4.41351e-05 0.0 
1.00182 0.000928382 0.0 
1.00155 0.00034685 0.0 
1.00128 -0.000643032 0.0 
0.0150979 -0.000119394 0.0 
1.00089 -9.74021e-05 0.0 
1.00008 0.000143896 0.0 
0 0 0.0 
0.999493 0.00143357 0.0 
0.999713 0.00428878 0.0 
1.0043 -0.00135934 0.0 
2.85317e-08 -5.72679e-10 0.0 
1.00303 0.00210637 0.0 
1.00564 -0.000985896 0.0 
1.00749 -0.000504161 0.0 
1.0012 -0.000969188 0.0 
1.00191 -0.00133393 0.0 
1.00086 -7.15892e-05 0.0 
1.00074 2.62326e-05 0.0 
0 0 0.0 
1.00137 -0.000380205 0.0 
0.999974 7.46776e-05 0.0 
0.99951 0.00254569 0.0 
1.00316 0.000278778 0.0 
1.00027 -0.000539973 0.0 
0 0 0.0 
0.994789 -0.00105931 0.0 
1.00086 -0.000755258 0.0 
1.00121 0.000341912 0.0 
1.00013 -0.00037955 0.0 
0.999241 0.00157587 0.0 
1.00135 -0.000373751 0.0 
1.00146 0.000466329 0.0 
1.00004 0.000219132 0.0 
1.0013 0.00128149 0.0 
1.0006 0.000520228 0.0 
1.00052 -0.000797921 0.0 
1.00031 5.33203e-05 0.0 
0.99871 -0.00544622 0.0 
1.00134 0.000428664 0.0 
0.103238 -0.00543462 0.0 
1.00081 4.90265e-05 0.0 
0 0 0.0 
1.00008 0.000234976 0.0 
1.00121 3.11166e-05 0.0 
0.999108 -0.000337356 0.0 
1.00079 -4.80745e-05 0.0 
1.00142 0.000344516 0.0 
1.00335 -0.00146686 0.0 
1.00096 0.000133823 0.0 
1.0006 -0.000138005 0.0 
1.00126 0.000431418 0.0 
0.0315553 0.00198296 0.0 
0.999701 0.00443284 0.0 
1.00005 -7.64983e-05 0.0 
1.00206 -0.000140985 0.0 
1.00094 -0.000789741 0.0 
0.00949176 -0.000429592 0.0 
1.0973 0.00167891 0.0 
1.00118 -0.000285996 0.0 
1.00139 0.00494488 0.0 
0.999855 -0.00329346 0.0 
1.01348 0.00720531 0.0 
1.00124 -0.000532622 0.0 
1.00142 0.000583649 0.0 
1.00099 -0.000164496 0.0 
0.0478109 0.00330723 0.0 
1.0012 -0.000193264 0.0 
1.0011 0.00257786 0.0 
1.00141 0.000409234 0.0 
0.0179874 0.000326962 0.0 
0.0470478 0.00383032 0.0 
1.00024 0.00326486 0.0 
1.00007 4.58111e-05 0.0 
1.00132 0.00109254 0.0 
1.00073 1.12481e-05 0.0 
1.00143 -0.000225973 0.0 
0.999472 -0.000728528 0.0 
1.00071 5.12343e-05 0.0 
1.00003 6.68897e-05 0.0 
0.988951 0.010184 0.0 
0.326819 0.0246802 0.0 
0.999694 -0.00348383 0.0 
1.00847 0.00249154 0.0 
1.00004 -0.000105489 0.0 
1.00158 -0.00199107 0.0 
1.00098 -0.000147449 0.0 
1.0014 0.000437874 0.0 
0.998882 0.00235739 0.0 
1.00114 0.000278183 0.0 
1.00095 0.00094063 0.0 
0 0 0.0 
1.0006 0.00116451 0.0 
0.999456 -0.000121302 0.0 
0.999598 0.0015232 0.0 
1.00099 -0.000227998 0.0 
1.00276 0.000960497 0.0 
1.00052 0.000141205 0.0 
0.999951 6.34835e-05 0.0 
0 0 0.0 
1.00431 -0.0020038 0.0 
1.00125 -0.000308571 0.0 
1.00081 -2.66094e-05 0.0 
1.0001 0.000272095 0.0 
1.00083 -6.29275e-05 0.0 
1.00114 -0.000425944 0.0 
1.00124 0.00113157 0.0 
1.00153 0.00202288 0.0 
0.988672 -0.00502132 0.0 
1.00091 0.000578251 0.0 
1.00069 -0.000155253 0.0 
1.00005 -0.000310707 0.0 
1.00123 0.00146862 0.0 
1.00649 -0.00353577 0.0 
1.00067 8.51107e-05 0.0 
1.0015 -0.00859593 0.0 
1.00038 5.05148e-05 0.0 
1.00082 -3.49275e-05 0.0 
1.00084 7.60193e-05 0.0 
1.00084 7.18044e-05 0.0 
1.00127 -0.000206156 0.0 
1.00114 -0.000175521 0.0 
1.0004 0 0.0 
1.00132 -0.00391439 0.0 
1.00066 0 0.0 
0.00832009 0.000248195 0.0 
0.356244 0.026153 0.0 
1.00306 -0.00483074 0.0 
0.990763 0.000950972 0.0 
1.00059 0.000345945 0.0 
1.00017 0.00184967 0.0 
0.994402 -0.00402902 0.0 
1.00065 0.00125828 0.0 
0.938632 -0.000423637 0.0 
1.00067 0.000243451 0.0 
1.00273 -0.000801871 0.0 
1.00002 0.000426096 0.0 
1.00325 0.000494175 0.0 
1.00056 -0.000199054 0.0 
1.00146 0.00057521 0.0 
1.01482 0.0186122 0.0 
1.00088 0.000113811 0.0 
1.00125 0.000638956 0.0 
1.00247 -0.0103319 0.0 
1.00151 0.000348911 0.0 
1.00153 0.000190209 0.0 
1.00009 0.000308859 0.0 
0 0 0.0 
1.00071 -2.23918e-05 0.0 
0.999822 0.00084971 0.0 
1.0007 4.80712e-06 0.0 
1.00093 0.000704017 0.0 
1.00136 0.000845767 0.0 
1.0004 -0.00255701 0.0 
0 0 0.0 
0 0 0.0 
0.997612 0.00432667 0.0 
1.00051 0.000454805 0.0 
1.00021 -0.000287795 0.0 
1.00007 -6.64097e-05 0.0 
1.00274 -0.0023321 0.0 
0.985341 -0.000561799 0.0 
1.00078 -0.000660718 0.0 
1.00152 -0.00063917 0.0 
1.00404 0.00664206 0.0 
1.00165 0.000739727 0.0 
1.00205 0.00362843 0.0 
0 0 0.0 
1.00217 0.000822527 0.0 
0.99981 -0.000259991 0.0 
1.0003 -0.00169547 0.0 
1.00016 -0.00266267 0.0 
0.999728 -0.000993943 0.0 
0.999877 6.55447e-05 0.0 
0.999794 -0.000365406 0.0 
1.00126 -0.00115194 0.0 
0.853704 -0.000405378 0.0 
1.00183 0.000417614 0.0 
1.00079 -0.000201939 0.0 
1.00068 3.66461e-05 0.0 
0.998447 0.00120892 0.0 
1.01282 -0.00268181 0.0 
0.0596758 0.00207496 0.0 
1.00286 0.00144751 0.0 
1.00358 2.06147e-05 0.0 
1.00001 0.000109023 0.0 
0.999976 -0.000215496 0.0 
1.00178 -0.000167162 0.0 
1.00295 -0.00164828 0.0 
1.00058 -0.000513264 0.0 
1.00013 4.37929e-05 0.0 
0.997721 0.00142785 0.0 
1.00067 -0.000487097 0.0 
3.00267e-08 -6.44844e-09 0.0 
1.00028 0.000177128 0.0 
1.00271 -0.000208111 0.0 
1.00368 0.0016877 0.0 
0.0413553 0.00225656 0.0 
1.00094 3.54315e-05 0.0 
1.00142 0.00615406 0.0 
1.00132 -0.000374064 0.0 
1.00014 -0.000886517 0.0 
0.999986 -1.15991e-05 0.0 
0.997955 -0.00179599 0.0 
1.00119 0.000288442 0.0 
1.00104 0.000143404 0.0 
1.00002 0.0137537 0.0 
1.00021 -0.000452067 0.0 
0.999678 -0.00260179 0.0 
1.00008 -0.00140486 0.0 
1.00166 0.000527501 0.0 
1.00027 0.000555089 0.0 
1.00116 0.000335013 0.0 
1.00084 -0.00265828 0.0 
1.0021 0.00058516 0.0 
1.00133 -0.000291646 0.0 
1.00007 0.000296648 0.0 
1.00067 -0.000152452 0.0 
1.00263 -0.00048035 0.0 
0.999474 0.00247225 0.0 
1.02882 -0.0557386 0.0 
1.00039 0.00127087 0.0 
1.00003 -0.000198243 0.0 
1.00038 -0.00105447 0.0 
1.00519 -0.00158485 0.0 
0.999774 0.000365839 0.0 
1.00092 -0.000205775 0.0 
1.00023 -0.000521441 0.0 
1.00138 0.000398861 0.0 
1.00176 -0.00161968 0.0 
1.00123 0.00215012 0.0 
1.00172 0.00137877 0.0 
0 0 0.0 
1.00069 3.14112e-05 0.0 
1.00549 0.00276438 0.0 
0.0122183 -0.000194414 0.0 
1.00118 0.000342326 0.0 