<VTKFile type="UnstructuredGrid" version="0.1" byte_order="LittleEndian">
  <UnstructuredGrid>
    <Piece NumberOfPoints="9712" NumberOfCells="19403">
      <Points>
        <DataArray type = "Float64" NumberOfComponents="3" format="ascii">
-5 -7 0.0 
15.5 -7 0.0 
15.5 7 0.0 
-5 7 0.0 
-1.6546 1.77742 0.0 
-2.13867 1.86504 0.0 
-1.83467 1.79143 0.0 
1.47969 -2.21179 0.0 
1.36003 -2.38618 0.0 
1.4346 -2.45048 0.0 
-2.04214 1.94165 0.0 
-0.20425 1.17338 0.0 
-2.07648 1.81911 0.0 
-2.00827 1.89081 0.0 
-2.05492 1.98872 0.0 
0.192693 0.536219 0.0 
0.154285 1.75648 0.0 
1.1379 -1.62057 0.0 
-2.11226 1.96977 0.0 
-1.74119 1.75327 0.0 
1.14499 -1.58184 0.0 
-1.94373 2.37229 0.0 
1.50619 -0.664239 0.0 
1.99658 -1.76705 0.0 
1.7229 -1.18344 0.0 
-1.97759 2.52091 0.0 
-0.768046 0.387136 0.0 
1.32657 -1.43969 0.0 
1.90142 0.24821 0.0 
-0.93264 1.51038 0.0 
1.09557 0.967223 0.0 
0.627111 0.757352 0.0 
-2.05707 2.31394 0.0 
1.34027 -2.45136 0.0 
-0.725097 0.397516 0.0 
-0.666094 2.30428 0.0 
-0.73829 -0.279965 0.0 
1.73336 -1.08822 0.0 
1.88466 -1.24421 0.0 
1.50539 -1.23752 0.0 
1.65978 -1.30759 0.0 
-0.0409718 0.542603 0.0 
1.6005 -1.1227 0.0 
1.78439 -0.941488 0.0 
1.86015 -1.54236 0.0 
1.49308 -1.40058 0.0 
2.34892 -1.47149 0.0 
2.13832 -1.3246 0.0 
1.73061 0.751302 0.0 
-0.580328 0.526903 0.0 
1.51013 -2.1595 0.0 
-1.65424 3.45779 0.0 
-1.51397 2.46352 0.0 
1.42773 -2.17867 0.0 
0.304353 0.497878 0.0 
2.24628 0.228293 0.0 
1.51258 -2.27933 0.0 
-1.60346 3.44299 0.0 
-1.71408 2.36227 0.0 
2.17421 0.530405 0.0 
2.42 0.316451 0.0 
-1.63642 3.31911 0.0 
2.53942 -0.995036 0.0 
0.750003 0.810439 0.0 
2.04736 0.40918 0.0 
1.19615 -1.50641 0.0 
2.13474 0.494063 0.0 
0.547924 0.306722 0.0 
-0.2059 0.361394 0.0 
2.2127 0.547693 0.0 
1.41442 -0.597105 0.0 
1.52233 -1.46252 0.0 
-1.84114 2.53924 0.0 
-5 -2.53894 0.0 
2.32127 0.371156 0.0 
-1.69186 3.33379 0.0 
-0.964779 0.566136 0.0 
-1.81311 2.48387 0.0 
-1.78557 3.38304 0.0 
1.48278 0.914136 0.0 
2.51531 -1.89689 0.0 
1.20982 -0.330514 0.0 
0.408434 0.319657 0.0 
0.95023 0.60993 0.0 
-0.752349 0.440796 0.0 
-0.998248 0.564019 0.0 
-1.73165 3.36299 0.0 
1.24353 -1.49063 0.0 
0.942095 0.817189 0.0 
-1.77816 2.47096 0.0 
2.48183 -1.95479 0.0 
1.33574 -1.77854 0.0 
0.823335 1.12085 0.0 
-0.36308 0.598468 0.0 
0.745466 0.783414 0.0 
-1.88344 2.8521 0.0 
-1.79794 3.52221 0.0 
3.0087 0.272815 0.0 
-1.81486 2.66014 0.0 
0.375911 -0.403668 0.0 
-0.68323 0.487288 0.0 
-0.34187 -0.274923 0.0 
-0.293875 -0.201368 0.0 
1.61018 -1.767 0.0 
-0.448275 -0.347267 0.0 
-1.08687 0.352015 0.0 
1.29257 -1.76345 0.0 
1.67658 -1.49551 0.0 
1.19193 0.533009 0.0 
1.21582 -1.91654 0.0 
-0.36438 -0.346225 0.0 
-0.92534 0.330346 0.0 
2.3836 0.287756 0.0 
1.68841 0.639887 0.0 
1.59001 -1.89458 0.0 
1.14818 -1.92143 0.0 
1.28996 -2.19426 0.0 
1.37603 -1.8763 0.0 
1.23834 -2.09141 0.0 
1.11702 -2.06287 0.0 
0.691829 0.463808 0.0 
1.46523 -2.03459 0.0 
-0.123547 0.424486 0.0 
-1.3311 2.12174 0.0 
1.08169 -1.90074 0.0 
1.87975 -2.15971 0.0 
1.10131 -1.78593 0.0 
1.13722 0.534683 0.0 
1.42465 -1.59031 0.0 
-1.45435 2.47344 0.0 
1.41998 -1.98207 0.0 
0.463917 1.8787 0.0 
-1.72896 2.89571 0.0 
1.12419 -1.84975 0.0 
1.59054 -1.20634 0.0 
0.46124 0.621002 0.0 
0.806438 -1.00204 0.0 
2.1804 0.349761 0.0 
2.21142 -1.6418 0.0 
1.10152 -0.274558 0.0 
2.23388 0.387302 0.0 
0.137769 0.567007 0.0 
1.88736 0.267391 0.0 
1.26821 -1.94267 0.0 
0.21033 -0.605707 0.0 
2.61094 -1.50046 0.0 
0.819837 0.743337 0.0 
-1.4303 2.07799 0.0 
1.82013 0.322126 0.0 
-1.47649 2.2099 0.0 
1.15745 -0.274223 0.0 
-1.81198 2.24994 0.0 
2.34337 -1.67775 0.0 
-1.13329 1.37877 0.0 
-0.828215 1.05292 0.0 
2.46752 -1.53452 0.0 
-1.69915 2.18529 0.0 
-0.404416 -0.286271 0.0 
-1.23501 1.31766 0.0 
2.11757 -1.50659 0.0 
-1.08535 1.28274 0.0 
2.58548 -1.70783 0.0 
0.24729 -0.572345 0.0 
-1.66963 2.25319 0.0 
1.58322 -1.62308 0.0 
-0.367923 -0.306026 0.0 
0.391521 1.44485 0.0 
1.88977 -2.46319 0.0 
1.5943 -1.53613 0.0 
-0.357143 -0.23651 0.0 
0.82621 0.80563 0.0 
-1.59261 2.31884 0.0 
-0.47244 -0.307516 0.0 
-0.40334 -0.326688 0.0 
-2.00063 2.11543 0.0 
1.55514 -1.95078 0.0 
-1.40431 2.26352 0.0 
-0.0265928 0.573714 0.0 
1.17093 1.10579 0.0 
-1.77907 2.22111 0.0 
0.682788 0.329642 0.0 
-0.54475 2.15572 0.0 
-0.288592 0.289433 0.0 
-1.43199 2.16349 0.0 
-1.45029 2.25134 0.0 
1.5535 -1.79992 0.0 
-1.06406 1.08381 0.0 
1.72954 1.44966 0.0 
0.582806 0.515814 0.0 
0.582876 -0.679913 0.0 
1.32351 -0.355916 0.0 
-0.47505 0.577092 0.0 
-0.371167 0.227715 0.0 
1.52235 -1.8529 0.0 
-0.429822 -0.244811 0.0 
-0.53237 -0.24648 0.0 
-0.393983 -0.210364 0.0 
0.652895 0.317361 0.0 
1.55812 -1.70765 0.0 
1.63021 0.325622 0.0 
0.442731 0.358729 0.0 
1.22925 -1.85192 0.0 
1.43517 -1.79082 0.0 
1.39317 -1.6984 0.0 
1.62965 0.295952 0.0 
0.905462 0.793465 0.0 
1.04036 -1.64811 0.0 
2.1131 -1.72466 0.0 
-0.743911 0.369492 0.0 
1.14427 -1.99314 0.0 
1.26033 -2.0209 0.0 
-1.70955 2.07308 0.0 
0.910023 -1.62976 0.0 
-0.313059 -0.0954838 0.0 
-1.77334 2.3988 0.0 
-0.311958 -0.24042 0.0 
2.53315 0.325608 0.0 
-0.273728 -0.226719 0.0 
-0.646401 0.379627 0.0 
1.52426 0.616074 0.0 
2.21703 -1.79499 0.0 
2.71108 0.312216 0.0 
0.759924 1.093 0.0 
-1.69271 2.12368 0.0 
0.255794 0.540969 0.0 
0.0534699 0.562158 0.0 
-1.5679 2.22408 0.0 
-1.66906 2.45165 0.0 
-1.51895 2.09449 0.0 
2.16948 0.408238 0.0 
-0.818806 0.680638 0.0 
-0.826868 0.642087 0.0 
0.519855 0.276992 0.0 
-0.716682 1.18602 0.0 
-0.649974 -0.148775 0.0 
0.457368 0.256619 0.0 
0.517407 0.248194 0.0 
0.327129 0.39802 0.0 
0.533249 -0.878832 0.0 
-0.870735 0.634904 0.0 
1.19219 1.07557 0.0 
2.35922 0.366028 0.0 
-1.66911 3.66723 0.0 
-0.857603 1.54934 0.0 
-0.379189 2.30131 0.0 
-0.941007 1.36523 0.0 
-1.58662 2.49682 0.0 
-0.545297 0.352587 0.0 
0.327944 -0.744683 0.0 
-0.312756 0.524741 0.0 
-0.107843 0.506233 0.0 
2.13378 -2.36584 0.0 
1.52689 0.686953 0.0 
-0.119983 0.327909 0.0 
1.02161 -1.53072 0.0 
1.51507 0.39695 0.0 
-0.674484 1.02605 0.0 
-0.564724 -0.148435 0.0 
0.409388 0.290913 0.0 
0.252349 0.30842 0.0 
-1.09282 1.45998 0.0 
1.45674 -1.54484 0.0 
-0.266777 0.782169 0.0 
0.91327 -0.874389 0.0 
1.01208 1.13309 0.0 
-0.897136 1.35063 0.0 
-0.846484 0.489353 0.0 
1.47563 0.663768 0.0 
-1.22282 2.05021 0.0 
0.348906 0.416714 0.0 
1.41913 0.964648 0.0 
0.933289 -0.839038 0.0 
-1.85066 1.40221 0.0 
0.142477 1.99435 0.0 
-0.717809 0.341194 0.0 
-2.21177 1.41584 0.0 
0.396571 0.350929 0.0 
1.25171 -1.60721 0.0 
0.736798 0.393502 0.0 
-0.661427 0.19031 0.0 
2.18751 -2.32769 0.0 
-1.00908 1.6747 0.0 
2.21416 -2.07269 0.0 
-0.779194 0.642011 0.0 
-1.02312 1.3939 0.0 
2.08809 -2.24876 0.0 
-5 -4.48794 0.0 
1.61792 -1.46215 0.0 
-0.974627 1.38947 0.0 
1.81166 -2.48446 0.0 
-1.03635 1.47474 0.0 
0.869004 -1.74424 0.0 
0.956579 -1.78598 0.0 
1.07495 0.540689 0.0 
-1.08005 1.37763 0.0 
0.914755 -0.803058 0.0 
0.611759 -0.305322 0.0 
1.70043 -1.41356 0.0 
0.75708 -0.631542 0.0 
1.21215 1.01979 0.0 
-0.586902 0.440014 0.0 
1.9251 -2.56336 0.0 
-1.58261 1.91091 0.0 
-0.746541 1.26087 0.0 
-1.49915 1.13657 0.0 
-1.46675 0.971536 0.0 
-1.05881 0.930935 0.0 
0.71826 0.415078 0.0 
-0.701697 0.526982 0.0 
-1.56194 2.05157 0.0 
1.15988 0.991244 0.0 
1.38676 0.949615 0.0 
-1.61697 2.02689 0.0 
1.13748 -0.357331 0.0 
-1.8456 2.04561 0.0 
0.253686 -0.756334 0.0 
-1.53603 1.86509 0.0 
-1.43465 0.924137 0.0 
-1.00273 1.27416 0.0 
-1.03063 1.5132 0.0 
-1.32483 1.94769 0.0 
-0.965552 1.61445 0.0 
-0.239859 -0.245939 0.0 
-5 3.01776 0.0 
-5 -0.248741 0.0 
0.517491 1.87079 0.0 
-1.18776 1.8875 0.0 
2.27458 0.36201 0.0 
1.9794 0.331487 0.0 
0.503086 0.510306 0.0 
1.26387 -0.370702 0.0 
1.24483 0.550197 0.0 
1.12871 0.979556 0.0 
-1.48659 1.83259 0.0 
1.0672 0.958366 0.0 
-1.16856 1.61214 0.0 
-0.218637 -0.230696 0.0 
-5 1.81431 0.0 
1.37014 1.04658 0.0 
0.0950623 0.557621 0.0 
-1.23613 1.67303 0.0 
0.953731 -0.709843 0.0 
2.07568 -1.85385 0.0 
2.10836 -1.82014 0.0 
-0.994952 1.33552 0.0 
-1.86986 1.52312 0.0 
0.515812 0.447542 0.0 
0.842446 0.992035 0.0 
-1.42353 1.8223 0.0 
2.091 0.354014 0.0 
-0.937663 0.401428 0.0 
-1.69305 1.41997 0.0 
-1.82465 1.55127 0.0 
2.15192 0.384657 0.0 
-1.17972 1.37998 0.0 
-0.718866 -0.0130647 0.0 
-0.927867 0.290435 0.0 
1.56509 0.300406 0.0 
-5 -3.04052 0.0 
9.98027 -7 0.0 
0.176009 0.694641 0.0 
0.597997 -0.559941 0.0 
-0.546583 0.4849 0.0 
0.602022 -0.657834 0.0 
2.17737 0.379672 0.0 
1.89809 0.287017 0.0 
-1.58883 1.35796 0.0 
-1.2284 1.37063 0.0 
-1.43937 1.35342 0.0 
-1.59664 1.47263 0.0 
0.577431 -0.368705 0.0 
1.5263 -1.51093 0.0 
0.479666 0.796509 0.0 
0.894995 1.01463 0.0 
2.22312 0.363016 0.0 
-0.320562 0.726481 0.0 
-1.30188 2.41386 0.0 
0.43802 0.434693 0.0 
-0.761697 0.762024 0.0 
1.45688 -1.49591 0.0 
-0.65072 0.676835 0.0 
1.6097 -1.41509 0.0 
2.25768 0.399237 0.0 
1.85518 0.299709 0.0 
2.14618 0.290757 0.0 
2.25222 0.371677 0.0 
-1.93063 2.91367 0.0 
1.52717 0.319618 0.0 
1.67964 -1.62237 0.0 
1.35962 -0.439169 0.0 
1.63007 -1.54335 0.0 
-5 -0.764504 0.0 
-1.61377 2.62271 0.0 
1.73865 -1.57725 0.0 
-0.908306 1.23669 0.0 
1.60766 0.330292 0.0 
1.82509 -1.63054 0.0 
1.90521 0.312457 0.0 
1.98719 -1.6488 0.0 
-0.528791 0.39225 0.0 
1.94978 -2.39003 0.0 
-0.472559 0.718465 0.0 
-1.28058 2.26572 0.0 
0.881581 -0.556282 0.0 
2.26369 0.42542 0.0 
0.917309 -1.69962 0.0 
0.853954 -1.60945 0.0 
1.30086 -0.404316 0.0 
1.99565 -2.46852 0.0 
1.49445 -1.47573 0.0 
1.68285 0.863315 0.0 
2.03074 -2.37549 0.0 
2.52279 -0.506167 0.0 
2.56049 -1.76899 0.0 
-1.52889 2.56597 0.0 
2.81136 -0.570221 0.0 
1.3688 -1.46095 0.0 
1.29524 -0.373946 0.0 
-0.350504 0.671928 0.0 
-0.590282 0.564035 0.0 
-0.054366 2.16706 0.0 
1.50819 1.22548 0.0 
-0.548222 0.453941 0.0 
2.19936 -2.5207 0.0 
12.2704 -7 0.0 
1.6811 -1.36761 0.0 
-0.449261 0.559535 0.0 
0.537017 -0.527614 0.0 
-0.00733391 0.553304 0.0 
0.494109 -0.356396 0.0 
-0.7939 0.0827441 0.0 
0.39888 0.467333 0.0 
-1.04288 1.34095 0.0 
0.605019 1.02824 0.0 
0.847559 0.374727 0.0 
1.00336 0.618307 0.0 
2.1955 0.399186 0.0 
0.656973 0.401158 0.0 
-0.998431 2.73564 0.0 
[...]
<PointData>
  <DataArray type = "Float64" Name="VitesseP1" NumberOfComponents="3" format="ascii">
1 0 0.0 
1.08937 0 0.0 
1.03329 0 0.0 
1 0 0.0 
0.994642 0.0155246 0.0 
0.996926 0.010916 0.0 
0.995515 0.013359 0.0 
1.04237 -0.00308863 0.0 
1.04437 -0.00428019 0.0 
1.0499 -0.00372753 0.0 
0.997765 0.011833 0.0 
0.986879 0.0721389 0.0 
0.996621 0.0112415 0.0 
0.996832 0.0120208 0.0 
0.998913 0.0118364 0.0 
0.992813 0.217819 0.0 
1.02001 0.0527738 0.0 
1.04989 -0.0252906 0.0 
0.998839 0.0112644 0.0 
0.995053 0.0142734 0.0 
1.05514 -0.0262333 0.0 
0.998838 0.0131516 0.0 
1.16073 -0.0246794 0.0 
1.04684 0.0128134 0.0 
1.06392 -0.000966946 0.0 
0.998799 0.0127409 0.0 
0.944729 0.00855886 0.0 
1.06353 -0.0212112 0.0 
0.0632251 -0.00195748 0.0 
0.988898 0.0309978 0.0 
1.14327 0.0669048 0.0 
1.1106 0.141592 0.0 
0.998834 0.0121707 0.0 
1.03439 -0.0172874 0.0 
0.941581 0.01214 0.0 
1.00532 0.0298683 0.0 
0.937157 -0.0513105 0.0 
1.08489 -0.000688623 0.0 
1.05678 0.00973051 0.0 
1.05458 -0.0147045 0.0 
1.0575 -0.004152 0.0 
0.927304 0.151347 0.0 
1.07545 -0.0101068 0.0 
1.12658 0.00288199 0.0 
1.06846 0.00781721 0.0 
1.06404 -0.0129411 0.0 
1.06323 0.0351559 0.0 
1.05773 0.0252505 0.0 
1.20022 0.0262789 0.0 
0.93977 0.035426 0.0 
1.04112 -0.00304769 0.0 
1.00246 0.0120827 0.0 
0.999766 0.0172503 0.0 
1.04057 -0.00466323 0.0 
1.03832 0.242828 0.0 
0.0331257 0.0153849 0.0 
1.04406 -0.00205302 0.0 
1.00268 0.0124774 0.0 
0.99906 0.0153768 0.0 
1.16617 -0.00355717 0.0 
0.155759 -0.00161296 0.0 
1.00234 0.0127558 0.0 
1.09489 0.061807 0.0 
1.12352 0.120032 0.0 
0.569199 -0.00121402 0.0 
1.06116 -0.0261264 0.0 
1.07499 -0.00184189 0.0 
0.557768 0.13467 0.0 
0.863108 0.0852726 0.0 
1.18697 -0.00802079 0.0 
1.20237 -0.0363839 0.0 
1.06735 -0.0105654 0.0 
0.999007 0.0138643 0.0 
1 0 0.0 
0.311922 -0.00985994 0.0 
1.00211 0.0123397 0.0 
0.968253 0.0104243 0.0 
0.99903 0.0142145 0.0 
1.00174 0.0115329 0.0 
1.17457 0.0342776 0.0 
1.03773 0.0243413 0.0 
0.756747 -0.0400284 0.0 
0.94953 0.262919 0.0 
1.17408 0.114336 0.0 
0.946364 0.0140783 0.0 
0.970058 0.00872611 0.0 
1.00201 0.0119576 0.0 
1.06252 -0.0243172 0.0 
1.14428 0.0966372 0.0 
0.999094 0.014558 0.0 
1.04409 0.0286385 0.0 
1.04281 -0.0137189 0.0 
1.09734 0.0787058 0.0 
0.935788 0.0697965 0.0 
1.12586 0.124184 0.0 
0.999828 0.0126751 0.0 
1.00213 0.0107685 0.0 
0.0346578 -0.150671 0.0 
0.999191 0.0137998 0.0 
1.19224 -0.234212 0.0 
0.944272 0.0228278 0.0 
0.919137 -0.0883612 0.0 
0.915944 -0.0745076 0.0 
1.04712 -0.00315253 0.0 
0.924731 -0.0782423 0.0 
0.967298 -0.00825222 0.0 
1.04251 -0.0156836 0.0 
1.06903 -0.00195977 0.0 
1.19741 0.0822072 0.0 
1.03801 -0.0152703 0.0 
0.920467 -0.0885896 0.0 
0.955019 -0.00376074 0.0 
0.0951195 0.00894088 0.0 
1.20359 0.0329597 0.0 
1.044 -0.0030102 0.0 
1.03645 -0.0171353 0.0 
1.03824 -0.00732563 0.0 
1.04185 -0.0106369 0.0 
1.0356 -0.0111188 0.0 
1.03267 -0.0161131 0.0 
1.16473 0.183631 0.0 
1.03923 -0.005554 0.0 
0.877674 0.125801 0.0 
0.999062 0.020687 0.0 
1.03535 -0.0197024 0.0 
1.04111 0.00593181 0.0 
1.03767 -0.0220453 0.0 
1.19691 0.0897669 0.0 
1.06125 -0.0136041 0.0 
1.00001 0.0178676 0.0 
1.03926 -0.00763661 0.0 
1.02989 0.0460519 0.0 
1.00069 0.0137015 0.0 
1.03722 -0.0197031 0.0 
1.05907 -0.00959883 0.0 
1.08819 0.18865 0.0 
1.06896 -0.0725212 0.0 
0.173079 0.00302439 0.0 
1.05427 0.0238344 0.0 
0.458516 -0.0388065 0.0 
0.397453 -0.00822287 0.0 
0.97818 0.196232 0.0 
0.0677525 -0.00640113 0.0 
1.03805 -0.0130879 0.0 
1.03133 -0.160268 0.0 
1.05086 0.0504317 0.0 
1.14012 0.119955 0.0 
0.998776 0.0193145 0.0 
0.0790543 0.00423097 0.0 
0.998931 0.0184014 0.0 
0.411719 -0.0164826 0.0 
0.998753 0.0144757 0.0 
1.04608 0.0284952 0.0 
0.985306 0.0242976 0.0 
0.973627 0.0340981 0.0 
1.05616 0.0395142 0.0 
0.998585 0.0157088 0.0 
0.923117 -0.0795001 0.0 
0.984308 0.0207407 0.0 
1.06728 0.0216674 0.0 
0.981761 0.0251587 0.0 
1.03335 0.0351266 0.0 
1.04071 -0.170773 0.0 
0.998864 0.0159972 0.0 
1.05902 -0.00563125 0.0 
0.920553 -0.0858677 0.0 
1.03478 0.0688829 0.0 
1.04801 -0.00085537 0.0 
1.06768 -0.00596483 0.0 
0.916779 -0.0816934 0.0 
1.13349 0.111808 0.0 
0.99917 0.0167711 0.0 
0.927991 -0.0726919 0.0 
0.922583 -0.0825595 0.0 
0.998626 0.0125573 0.0 
1.04167 -0.00378697 0.0 
0.999418 0.0192187 0.0 
0.93938 0.15128 0.0 
1.13111 0.0482833 0.0 
0.998696 0.0148285 0.0 
0.634973 0.110594 0.0 
1.00602 0.0338998 0.0 
0.863654 0.0452556 0.0 
0.998892 0.0191099 0.0 
0.999227 0.0186449 0.0 
1.04537 -0.0051315 0.0 
0.974148 0.0236793 0.0 
1.07134 -0.0383594 0.0 
1.14214 0.199234 0.0 
1.10955 -0.128389 0.0 
0.875273 -0.0298026 0.0 
0.938464 0.0516497 0.0 
0.87532 0.0162369 0.0 
1.04422 -0.00579853 0.0 
0.924352 -0.073077 0.0 
0.933444 -0.0625609 0.0 
0.919086 -0.0742354 0.0 
0.582332 0.110877 0.0 
1.05041 -0.00589729 0.0 
0.116381 0.0180083 0.0 
1.03794 0.264794 0.0 
1.03955 -0.016157 0.0 
1.04421 -0.00980191 0.0 
1.04896 -0.0130645 0.0 
0.0955587 0.0260199 0.0 
1.14349 0.10335 0.0 
1.04406 -0.0282336 0.0 
1.04776 0.0180833 0.0 
0.941628 0.00839713 0.0 
1.03397 -0.016038 0.0 
1.03597 -0.0117897 0.0 
0.998729 0.0155907 0.0 
1.04121 -0.0335345 0.0 
0.898883 -0.0655477 0.0 
0.999027 0.0147229 0.0 
0.910029 -0.0857149 0.0 
0.219113 -0.0205755 0.0 
0.888173 -0.0839213 0.0 
0.932843 0.0159031 0.0 
1.20196 0.0451286 0.0 
1.04363 0.0213892 0.0 
0.289468 -0.0458038 0.0 
1.09677 0.0863356 0.0 
0.998542 0.0157913 0.0 
1.01956 0.222727 0.0 
0.951977 0.177009 0.0 
0.998864 0.0172241 0.0 
0.999297 0.0156555 0.0 
0.998742 0.0180337 0.0 
0.557847 -0.0046593 0.0 
0.967838 0.0248544 0.0 
0.965541 0.0223719 0.0 
0.414801 0.135841 0.0 
0.976738 0.040498 0.0 
0.940399 -0.0444396 0.0 
0.30183 0.101602 0.0 
0.37557 0.184552 0.0 
1.06387 0.296611 0.0 
1.06951 -0.102248 0.0 
0.967294 0.019298 0.0 
1.13877 0.0485479 0.0 
0.30361 -0.00889616 0.0 
1.00081 0.0113484 0.0 
0.990506 0.0332949 0.0 
1.00946 0.0342604 0.0 
0.983948 0.030711 0.0 
0.999597 0.0163774 0.0 
0.918991 0.021158 0.0 
1.05919 -0.131021 0.0 
0.919286 0.0754161 0.0 
0.909095 0.131735 0.0 
1.04664 0.0144832 0.0 
1.19333 0.0422322 0.0 
0.830243 0.116553 0.0 
1.05566 -0.0329947 0.0 
0.566087 0.0217378 0.0 
0.975951 0.0431522 0.0 
0.93281 -0.0503296 0.0 
0.702561 0.194635 0.0 
0.899736 0.33889 0.0 
0.987403 0.0259357 0.0 
1.06552 -0.0126804 0.0 
0.967577 0.0859018 0.0 
1.11342 -0.0758039 0.0 
1.11174 0.0614905 0.0 
0.983338 0.0323531 0.0 
0.956445 0.0118932 0.0 
1.1939 0.0474026 0.0 
0.999169 0.0226719 0.0 
1.07813 0.283626 0.0 
1.16746 0.0358435 0.0 
1.12392 -0.0768016 0.0 
0.994122 0.00993439 0.0 
1.01832 0.0444005 0.0 
0.937648 0.00729216 0.0 
0.997244 0.00828878 0.0 
1.019 0.284112 0.0 
1.05507 -0.020884 0.0 
1.00169 0.151125 0.0 
0.925358 -0.00674314 0.0 
1.03659 0.0332168 0.0 
0.992904 0.0283552 0.0 
1.03714 0.0180402 0.0 
0.962969 0.0255532 0.0 
0.985154 0.027928 0.0 
1.0369 0.00884711 0.0 
1 0 0.0 
1.06842 -0.00535078 0.0 
0.984886 0.0295647 0.0 
1.04627 -0.00012547 0.0 
0.9877 0.0277039 0.0 
1.03171 -0.0306812 0.0 
1.03386 -0.0267996 0.0 
1.1941 0.0989644 0.0 
0.984943 0.025973 0.0 
1.12964 -0.0814193 0.0 
0.914636 -0.146346 0.0 
1.06692 -0.00112501 0.0 
1.12836 -0.114096 0.0 
1.14758 0.0509588 0.0 
0.931578 0.0271274 0.0 
1.03714 0.00195266 0.0 
0.995973 0.0169633 0.0 
0.979968 0.0388487 0.0 
0.984166 0.0109374 0.0 
0.995534 0.0102008 0.0 
0.990145 0.0210274 0.0 
1.09084 0.167868 0.0 
0.948799 0.0243623 0.0 
0.99872 0.0174157 0.0 
1.14628 0.0584285 0.0 
1.16611 0.0396086 0.0 
0.998469 0.0166709 0.0 
0.934162 -0.0564958 0.0 
0.99909 0.0139978 0.0 
1.04329 -0.127818 0.0 
0.995075 0.0175507 0.0 
1.00023 0.0108491 0.0 
0.980911 0.0280286 0.0 
0.988944 0.0279381 0.0 
0.99661 0.0210907 0.0 
0.991998 0.0297399 0.0 
0.882548 -0.105713 0.0 
1 0 0.0 
1 0 0.0 
1.03184 0.0454004 0.0 
0.995296 0.0237077 0.0 
0.251898 -0.0049946 0.0 
0.0628313 0.00679364 0.0 
1.11767 0.216557 0.0 
0.96315 -0.0444074 0.0 
1.20155 0.075802 0.0 
1.14486 0.0625257 0.0 
0.99451 0.0182508 0.0 
1.14174 0.0705749 0.0 
0.9919 0.0242655 0.0 
0.948671 -0.164094 0.0 
1 0 0.0 
1.15761 0.0334715 0.0 
0.962304 0.18961 0.0 
0.99283 0.022785 0.0 
1.14436 -0.0843758 0.0 
1.04379 0.0151758 0.0 
1.04414 0.0168712 0.0 
0.983021 0.0286769 0.0 
0.995384 0.0111672 0.0 
1.12923 0.231854 0.0 
1.11898 0.0900929 0.0 
0.994264 0.0192911 0.0 
0.166366 -0.00344309 0.0 
0.958671 0.00101601 0.0 
0.992164 0.0119539 0.0 
0.995313 0.0118709 0.0 
0.370084 -0.00354385 0.0 
0.985648 0.0229194 0.0 
0.948714 -0.0293862 0.0 
0.953818 -0.00696455 0.0 
0.0996441 -0.0104079 0.0 
1 0 0.0 
1.06848 0 0.0 
1.00844 0.165696 0.0 
1.12041 -0.145576 0.0 
0.932338 0.0355934 0.0 
1.1135 -0.129681 0.0 
0.333348 -0.00405435 0.0 
0.0762078 -0.00430047 0.0 
0.989725 0.0126764 0.0 
0.985779 0.0214477 0.0 
0.987543 0.0157882 0.0 
0.991731 0.0140904 0.0 
1.10958 -0.173103 0.0 
1.06743 -0.00968595 0.0 
1.08047 0.146441 0.0 
1.12191 0.0830057 0.0 
0.243753 -0.00253541 0.0 
0.957097 0.078799 0.0 
1.00051 0.0199162 0.0 
1.11208 0.256793 0.0 
0.972487 0.0322397 0.0 
1.06667 -0.0135738 0.0 
0.959574 0.0375715 0.0 
1.06643 -0.00630958 0.0 
0.489638 -0.0104439 0.0 
0.077191 0.00627856 0.0 
0.0613079 0.0186797 0.0 
0.297914 -0.00601255 0.0 
0.999811 0.012113 0.0 
0.0860004 0.00153525 0.0 
1.05968 -0.00112472 0.0 
1.16295 -0.0415062 0.0 
1.06765 -0.00410306 0.0 
1 0 0.0 
0.999713 0.0156952 0.0 
1.06562 0.00165132 0.0 
0.979314 0.0315955 0.0 
0.104043 0.00823474 0.0 
1.05935 0.00584507 0.0 
0.0751667 -0.00198778 0.0 
1.05656 0.0133722 0.0 
0.920682 0.0278196 0.0 
1.04264 0.000922119 0.0 
0.957691 0.0579393 0.0 
0.999895 0.0208934 0.0 
1.19575 -0.109221 0.0 
0.691415 -0.0117909 0.0 
1.03584 -0.0306684 0.0 
1.0417 -0.036117 0.0 
1.07187 -0.0435403 0.0 
1.05529 0.0100932 0.0 
1.06722 -0.0119001 0.0 
1.18872 0.0204183 0.0 
1.04196 0.0143905 0.0 
1.24441 0.0854558 0.0 
1.03504 0.0305836 0.0 
0.999914 0.016726 0.0 
1.173 0.108547 0.0 
1.06475 -0.0187436 0.0 
0.976209 -0.0445006 0.0 
0.948158 0.0737883 0.0 
0.944537 0.0370759 0.0 
1.01417 0.0408933 0.0 
1.13433 -0.00215135 0.0 
0.929243 0.032455 0.0 
1.00697 -0.00598572 0.0 
1.06587 0 0.0 
1.06354 -0.0024681 0.0 
0.9342 0.0541394 0.0 
1.13998 -0.163183 0.0 
0.936185 0.160256 0.0 
1.10398 -0.194644 0.0 
0.95279 -0.0201615 0.0 
1.08841 0.250637 0.0 
0.983479 0.0269935 0.0 
1.08814 0.103958 0.0 
0.791686 0.101215 0.0 
1.17667 0.105409 0.0 
0.487782 -0.00639329 0.0 
1.07727 0.186063 0.0 
1.00391 0.0209811 0.0 
1.05626 0.016211 0.0 
1.04285 0.00947432 0.0 
1.04765 -0.000153636 0.0 
1.04618 0.000932845 0.0 
0.0844387 0.0147534 0.0 
1.0419 0.00279466 0.0 
-0.0152337 0.0229254 0.0 
1.07529 -0.0436609 0.0 
1.00413 0.0343914 0.0 
1.04449 0.0101278 0.0 
1 0 0.0 
0.98346 0.0258387 0.0 
1.19466 0.0948261 0.0 
0.785666 -0.0405075 0.0 
0.999568 0.0151443 0.0 
0.992031 0.0384219 0.0 
1.04992 0.0109857 0.0 
1.05475 0.00611926 0.0 
0.940421 0.188943 0.0 
0.78241 0.130455 0.0 
1.00427 0.0181058 0.0 
1.15027 0.130839 0.0 
1.0005 0.243218 0.0 
0.999089 0.0118229 0.0 
0.986176 0.0287635 0.0 
1.05127 0.00197854 0.0 
0.938364 0.124472 0.0 
0.184506 0.00632588 0.0 
1.05027 0.00412153 0.0 
0.174365 0.0992427 0.0 
1.05049 -0.000129515 0.0 
1.02917 -0.0137323 0.0 
1.01645 0.0460069 0.0 
1.13244 -0.0523747 0.0 
1.04707 0.00305373 0.0 
0.957303 -0.00636063 0.0 
0.351367 0.0133981 0.0 
1.0634 -0.0221615 0.0 
0.946885 -0.0015696 0.0 
0.99977 0.014843 0.0 
1.06096 -0.0270985 0.0 
0.942186 0.0655102 0.0 
1.19746 -0.0440588 0.0 
0.279344 -0.0227047 0.0 
0.618219 -0.0156238 0.0 
0.941415 -0.0047405 0.0 
0.965201 0.272339 0.0 
0.252042 0.0479417 0.0 
0.997532 0.315925 0.0 
0.951081 -0.0071184 0.0 
1.07929 -0.0422019 0.0 
0.72142 -0.00198079 0.0 
0.358024 0.116456 0.0 
1.1031 0.0694243 0.0 
0.998699 0.0119234 0.0 
0.575166 -0.00192691 0.0 
0.167249 0.0272259 0.0 
0.914834 -0.0434477 0.0 
0.779094 -0.0228112 0.0 
1.0313 0.0465992 0.0 
0.99878 0.0115184 0.0 
1.02674 -0.097544 0.0 
1.11816 -0.0330421 0.0 
1.17521 0.022907 0.0 
0.0770759 -0.000742579 0.0 
0.936673 -0.0576227 0.0 
1.03411 0.0429044 0.0 
1.06735 -0.00748773 0.0 
0.938402 -0.00911832 0.0 
0.0806883 0.00101823 0.0 
0.9988 0.0124305 0.0 
1.1738 0.0277767 0.0 
1.05933 -0.0263657 0.0 
0.964402 0.216013 0.0 
1.05208 0.016928 0.0 
1.06882 0.000877623 0.0 
1.06888 0.0056923 0.0 
0.954834 0.0373454 0.0 
1.06127 -0.02412 0.0 
0.998922 0.0135955 0.0 
0.952511 0.00689177 0.0 
1.14187 -0.0319988 0.0 
1.05519 0.0210988 0.0 
0.989449 0.00710779 0.0 
0.953696 0.0151326 0.0 
0.99896 0.0137791 0.0 
1.05885 0.00587227 0.0 
1.04198 -0.00456638 0.0 
1.06109 -0.0213552 0.0 
0.990608 0.00873763 0.0 
1.02176 0.0467449 0.0 
0.998899 0.0130396 0.0 
1.04521 -0.0260077 0.0 
1.06604 0.0200169 0.0 
0.0537429 0.0179115 0.0 
0.0574763 0.0109646 0.0 
1.0691 0.0159319 0.0 
0.905712 -0.0564801 0.0 
0.893093 -0.0470702 0.0 
0.882012 0.120216 0.0 
0.999392 0.0137241 0.0 
0.99886 0.0136958 0.0 
0.963067 -0.0133076 0.0 
0.965217 -0.00213394 0.0 
1.03442 0.0270632 0.0 
0.964391 0.234907 0.0 
1.06796 0.151793 0.0 
1.03041 -0.0440262 0.0 
0.0648177 0.000118089 0.0 
1.16209 0.0230315 0.0 
1.09353 0.142532 0.0 
0.998723 0.0132212 0.0 
1.01605 0.0363613 0.0 
1.11291 -0.00812037 0.0 
0.98299 0.0206945 0.0 
0.934858 0.0462733 0.0 
1.03091 -0.0287169 0.0 
0.973615 0.0371184 0.0 
0.941678 0.108856 0.0 
0.934547 0.0587933 0.0 
0.828339 -0.0374847 0.0 
0.963116 0.00693176 0.0 
0.79296 -0.0474428 0.0 
1.00097 0.0178715 0.0 
1.03173 0.0419283 0.0 
0.954097 -0.0103386 0.0 
0.961812 -0.00118157 0.0 
0.922995 0.0340792 0.0 
1.10186 0.249035 0.0 
0.972534 0.00588743 0.0 
0.942982 0.291921 0.0 
0.945727 0.0326072 0.0 
0.975845 0.226419 0.0 
0.850484 0.286115 0.0 
0.995247 0.00732457 0.0 
1.00082 0 0.0 
0.998834 0.0119007 0.0 
0.977446 0.00136467 0.0 
0.895464 0.153972 0.0 
0.135299 0.00872612 0.0 
1.01081 0.0425101 0.0 
0.980923 0.00694681 0.0 
0.999411 0.0122916 0.0 
0.916172 -0.071877 0.0 
0.91702 0.0328834 0.0 
1.19932 -0.0325855 0.0 
0.998716 0.0121692 0.0 
0.970417 0.0791899 0.0 
0.7709 -0.0828934 0.0 
1.03364 -0.0227837 0.0 
0.936612 0.0635218 0.0 
0.995341 0.0159236 0.0 
0.944757 0.027374 0.0 
0.991177 0.0197259 0.0 
0.078232 0.0113745 0.0 
0.762764 -0.0723067 0.0 
1.04383 -0.00237681 0.0 
1.15334 0.0852919 0.0 
1.15021 -0.028727 0.0 
0.997732 0.0104802 0.0 
0.982374 0.0183127 0.0 
1.00519 0.202233 0.0 
1.11511 0.157669 0.0 
0.584153 0.0956126 0.0 
0.951737 0.189118 0.0 
0.981755 0.0186807 0.0 
0.302288 -0.0316628 0.0 
0.982757 0.0215749 0.0 
0.99733 0.0125092 0.0 
1.00032 0.0192915 0.0 
0.250468 -0.0225034 0.0 
0.206042 -0.0143501 0.0 
0.981991 0.0297784 0.0 
0.338743 0.0581634 0.0 
1.19346 0.0906133 0.0 
1.01004 0.0420236 0.0 
0.981168 0.032031 0.0 
0.999696 0.0191951 0.0 
0.978102 0.0110211 0.0 
0.930723 0.0685875 0.0 
0.976807 0.0255045 0.0 
0.852613 0.285243 0.0 
0.488093 -0.0306064 0.0 
0.228507 -0.0171444 0.0 
0.968426 0.0133161 0.0 
0.974995 0.0119314 0.0 
1.0551 0.204732 0.0 
0.313447 -0.0282917 0.0 
0.940202 0.0208509 0.0 
1.03418 -0.0382125 0.0 
0.983698 0.245887 0.0 
0.999245 0.0133682 0.0 
0.922994 0.0817267 0.0 
0.97264 0.0307175 0.0 
0.930686 0.143267 0.0 
0.960322 0.156506 0.0 
1.00955 0.255307 0.0 
0.716608 -0.0262448 0.0 
0.937667 -0.0523753 0.0 
1.11506 0.0609205 0.0 
0.469743 0.0937681 0.0 
0.926802 -0.0596932 0.0 
0.120913 0.00905707 0.0 
0.89941 -0.0129279 0.0 
0.749859 0.136137 0.0 
0.915506 -0.0664557 0.0 
0.922565 -0.056187 0.0 
0.615267 0.165353 0.0 
1.04675 0.00807248 0.0 
0.941483 0.173401 0.0 
0.880077 -0.0049751 0.0 
0.928683 -0.0537691 0.0 
1.04068 -0.00486958 0.0 
0.341051 0.0415833 0.0 
1.03749 -0.00807565 0.0 
0.866524 0.0073571 0.0 
0.898179 0.217483 0.0 
1.04935 -0.000442426 0.0 
0.907095 -0.0881135 0.0 
0.922345 0.183045 0.0 
0.295236 -0.0309328 0.0 
1.12866 0.0639373 0.0 
1.03542 0.170423 0.0 
0.83168 0.380996 0.0 
1.10295 0.164923 0.0 
1.06484 0.260015 0.0 
0.964339 -0.040517 0.0 
0.733568 -0.0990917 0.0 
0.977927 0.0330848 0.0 
0.523244 0.0620513 0.0 
0.918792 -0.0526876 0.0 
1.04665 0.0679824 0.0 
0.190414 0.000213344 0.0 
1.04461 0.263772 0.0 
1.05862 0.0420067 0.0 
0.879514 0.105276 0.0 
1.00493 0.0214904 0.0 
0.893223 0.0669016 0.0 
0.147823 0.00736633 0.0 
0.853788 0.0764008 0.0 
0.949757 0.0367073 0.0 
0.947624 0.00375709 0.0 
1.1739 -0.0378215 0.0 
0.764083 0.335529 0.0 
0.848154 0.089127 0.0 
1.02933 0.0722717 0.0 
1.08262 -0.0948571 0.0 
0.921429 -0.0469264 0.0 
1.04058 0.272064 0.0 
0.964972 0.0167077 0.0 
0.9959 0.0397465 0.0 
0.910726 0.0769503 0.0 
0.925087 0.112589 0.0 
0.911098 0.0353384 0.0 
1.0088 0.0269167 0.0 
0.920316 0.105902 0.0 
0.918003 0.22092 0.0 
0.999177 0.0124724 0.0 
1.09241 -0.0702661 0.0 
0.311261 -0.0354775 0.0 
1.05446 0.251367 0.0 
0.966779 0.203084 0.0 
0.807656 0.151301 0.0 
0.827418 0.0381928 0.0 
0.886739 0.0297853 0.0 
1.04276 0.305368 0.0 
0.99956 0.0170706 0.0 
1.12568 0.139993 0.0 
1.03379 0.226516 0.0 
0.886733 -0.0483568 0.0 
0.923288 -0.00201641 0.0 
0.858914 0.158455 0.0 
0.91136 0.0205738 0.0 
0.885612 0.0147987 0.0 
0.932679 -0.0461012 0.0 
0.934759 0.207309 0.0 
0.995774 0.0298862 0.0 
0.999549 0.014617 0.0 
0.122204 0.0101906 0.0 
0.108408 0.0118947 0.0 
0.913318 0.0276807 0.0 
0.527093 0.153816 0.0 
1.03875 -0.00660555 0.0 
0.922036 -0.0164447 0.0 
0.978144 -0.0011151 0.0 
0.903089 0.0764301 0.0 
0.842316 0.00667928 0.0 
1.08238 -0.0666729 0.0 
0.955325 0.00784472 0.0 
0.975695 0.00894529 0.0 
1.08489 0.267885 0.0 
0.231279 -0.0153202 0.0 
0.931214 0.300372 0.0 
0.973182 0.00249763 0.0 
0.98927 0.0536622 0.0 
1.06947 -0.229109 0.0 
0.969179 0.00453895 0.0 
0.961959 0.012405 0.0 
0.997735 0.0130568 0.0 
1.03796 -0.00779971 0.0 
0.798984 0.108644 0.0 
0.904882 0.0183204 0.0 
0.990999 0.00526315 0.0 
1.02917 -0.182526 0.0 
0.995219 0.0152101 0.0 
0.935838 0.0239954 0.0 
0.811658 0.168359 0.0 
0.950298 -0.0085931 0.0 
0.998136 0.00997031 0.0 
0.939074 0.00461053 0.0 
0.189047 0.128631 0.0 
0.944166 -0.00849808 0.0 
1.06538 -0.0088114 0.0 
0.954547 0.288817 0.0 
0.0783133 0.0103891 0.0 
1.1021 0.255192 0.0 
0.988104 0.0146863 0.0 
0.93033 -0.133704 0.0 
0.96907 0.00171155 0.0 
0.959878 0.00900411 0.0 
0.960123 0.00441212 0.0 
0.544299 0.134955 0.0 
0.962153 0.001735 0.0 
0.956275 -0.0136666 0.0 
0.652802 0.184378 0.0 
1.03468 -0.0116146 0.0 
1.03516 0.0443997 0.0 
0.997676 0.266116 0.0 
0.98121 0.0205852 0.0 
0.975715 0.0287563 0.0 
0.964907 0.00380464 0.0 
0.893903 0.0128534 0.0 
0.959214 -0.0179544 0.0 
0.119133 0.00117007 0.0 
0.96893 -0.000348705 0.0 
1.06054 0.0178692 0.0 
0.876785 0.168022 0.0 
0.996514 0.0118581 0.0 
1.06577 0.0283941 0.0 
1.05829 0.0946813 0.0 
1.10277 -0.0703647 0.0 
1.09739 0.104669 0.0 
0.976711 -0.00307519 0.0 
0.87745 0.182989 0.0 
0.996666 0.014245 0.0 
0.996979 0.010949 0.0 
0.890249 -0.0412392 0.0 
0.978919 0.0255303 0.0 
1.16463 -0.226759 0.0 
0.673854 0.0138277 0.0 
0.942399 0.0414046 0.0 
1.01811 0.302759 0.0 
0.908838 0.353382 0.0 
0.839659 0.13208 0.0 
1.1607 0.0752514 0.0 
0.154263 0.134152 0.0 
1.01903 0.289747 0.0 
1.06719 0.265991 0.0 
1.03955 -0.00494584 0.0 
0.93933 0.0940586 0.0 
0.0489184 0.00766178 0.0 
1.17707 0.147303 0.0 
0.978054 0.0315945 0.0 
0.910578 0.121943 0.0 
1.12768 0.219892 0.0 
0.852005 0.12425 0.0 
-0.0405458 -0.0170751 0.0 
0.979132 0.0297287 0.0 
0.925598 0.0734732 0.0 
0.746458 0.140623 0.0 
0.979953 0.0264835 0.0 
0.912398 0.150043 0.0 
0.995916 0.0123321 0.0 
0.903681 0.101358 0.0 
0.979452 0.0276502 0.0 
0.854496 0.0555681 0.0 
0.831575 0.0224357 0.0 
0.904884 0.164131 0.0 
0.998771 0.0112034 0.0 
0.969138 -0.0048092 0.0 
0.980405 0.0248319 0.0 
0.999097 0.0173417 0.0 
0.963017 -0.00483958 0.0 
0.961998 -0.00850279 0.0 
0.966453 -0.00429778 0.0 
0.938642 -0.0414813 0.0 
0.926343 0.0579662 0.0 
0.927003 0.0879456 0.0 
1.04164 -0.000370957 0.0 
0.989938 0.0316763 0.0 
1.06461 0.0295542 0.0 
0.999185 0.0142883 0.0 
1.07849 -0.00554895 0.0 
1.00591 0.0794249 0.0 
0.950042 0.0131501 0.0 
0.977187 0.0268363 0.0 
1.05075 -0.160782 0.0 
1.10237 0.243161 0.0 
1.12543 0.231334 0.0 
0.933732 -0.0322466 0.0 
0.99908 0.0138229 0.0 
0.951527 0.0108076 0.0 
0.996412 0.0134047 0.0 
0.979716 0.00523073 0.0 
1.05594 0.0111878 0.0 