<VTKFile type="UnstructuredGrid" version="0.1" byte_order="LittleEndian">
  <UnstructuredGrid>
    <Piece NumberOfPoints="23363" NumberOfCells="46608">
      <Points>
        <DataArray type = "Float64" NumberOfComponents="3" format="ascii">
-5 -7 0.0 
15.5 -7 0.0 
15.5 7 0.0 
-5 7 0.0 
3.18355 0.169963 0.0 
0.744743 -0.0245507 0.0 
-0.710082 0.3737 0.0 
3.54957 0.925901 0.0 
0.673904 -0.460293 0.0 
0.00357444 0.0170209 0.0 
4.31989 -1.69487 0.0 
2.39705 2.2728 0.0 
-0.895939 -2.86691 0.0 
2.40837 0.46912 0.0 
4.59058 -0.621464 0.0 
2.55179 1.01725 0.0 
4.61399 0.0713575 0.0 
4.24135 -0.223975 0.0 
0.120658 -0.0372114 0.0 
1.53551 -0.916129 0.0 
0.901939 2.91828 0.0 
-0.612495 -0.236684 0.0 
4.99259 -4.54755 0.0 
0.780345 -0.0266691 0.0 
3.45113 0.173009 0.0 
2.42109 -0.214438 0.0 
5.19146 0.585715 0.0 
0.566652 0.0897206 0.0 
-2.04169 2.27506 0.0 
8.37805 0.0277781 0.0 
1.55666 1.53218 0.0 
4.54256 4.34305 0.0 
0.307839 -3.51724 0.0 
2.19809 0.543599 0.0 
0.107351 0.924395 0.0 
-0.60249 0.408637 0.0 
0.162666 0.101807 0.0 
0.818564 0.0186712 0.0 
2.11482 0.243429 0.0 
7.28044 -0.676414 0.0 
4.75694 -0.287149 0.0 
3.18769 0.747325 0.0 
-0.554592 0.912013 0.0 
0.329707 -1.13269 0.0 
6.64097 1.71952 0.0 
2.24937 0.909197 0.0 
0.952447 -0.00545261 0.0 
0.704537 -1.22188 0.0 
-3.0161 0.308062 0.0 
2.83064 -0.121165 0.0 
4.58296 0.80603 0.0 
0.342706 -0.0445613 0.0 
3.53841 -4.17652 0.0 
4.09726 0.29417 0.0 
-2.78976 -0.608246 0.0 
0.245902 0.0445196 0.0 
0.98182 -0.00234488 0.0 
0.312588 -0.045315 0.0 
0.162793 0.0714252 0.0 
-1.16192 2.59577 0.0 
0.947784 -0.00635413 0.0 
15.5 5.74627 0.0 
0.905726 -0.012091 0.0 
2.59426 -1.05095 0.0 
0.913668 0.886882 0.0 
0.373201 0.0634108 0.0 
1.84164 -0.788891 0.0 
0.817571 -0.0182051 0.0 
1.31668 0.686478 0.0 
1.9638 0.17137 0.0 
-2.49719 3.29173 0.0 
-0.334695 -0.59899 0.0 
-1.06701 4.99404 0.0 
0.104646 -0.0359396 0.0 
2.85582 -1.29091 0.0 
-2.46645 1.8403 0.0 
-4.4386 0.211068 0.0 
-0.117446 0.782219 0.0 
6.95684 -2.1689 0.0 
-0.727497 -1.11308 0.0 
5.32983 -2.66539 0.0 
-0.735268 0.973456 0.0 
-2.24077 0.751408 0.0 
4.69545 -1.4105 0.0 
5.2637 0.829009 0.0 
0.474289 0.0410955 0.0 
4.18635 0.578246 0.0 
0.881069 0.019758 0.0 
4.22485 0.361379 0.0 
1.74304 -1.16672 0.0 
-1.99337 -6.54339 0.0 
-0.897961 -1.21087 0.0 
6.03814 0.519242 0.0 
4.46587 -0.160323 0.0 
3.42216 0.888527 0.0 
3.00792 -0.733911 0.0 
0.431538 -0.0463053 0.0 
1.95618 -0.900845 0.0 
0.813531 0.01865 0.0 
1.7464 -0.313211 0.0 
1.02723 -0.0221506 0.0 
0.154229 -0.210612 0.0 
4.95981 1.28089 0.0 
3.29459 1.04115 0.0 
1.20256 -1.51503 0.0 
0.611521 -0.0348414 0.0 
1.6323 0.444164 0.0 
0.105602 -0.0356587 0.0 
2.37201 0.562293 0.0 
5.72095 0.794109 0.0 
0.434749 -0.0654113 0.0 
0.404053 -0.0510612 0.0 
3.87079 -0.00723506 0.0 
0.920555 -0.00873148 0.0 
0.611398 -0.0418877 0.0 
6.54424 2.96551 0.0 
0.298395 0.045412 0.0 
0.381016 -0.139498 0.0 
-0.0127712 -0.363675 0.0 
-1.11211 0.450976 0.0 
5.70107 0.103025 0.0 
2.56821 1.18202 0.0 
1.94198 0.759367 0.0 
-0.767916 -1.36647 0.0 
6.26558 3.27619 0.0 
0.393758 0.0433312 0.0 
1.03918 -3.7326 0.0 
2.98196 -2.19664 0.0 
-0.723337 0.659752 0.0 
0.769751 0.0257312 0.0 
-0.0432695 -0.11786 0.0 
1.77324 0.00772123 0.0 
0.0285682 0.173596 0.0 
3.56944 0.143615 0.0 
5.16625 -0.902404 0.0 
0.425461 -0.0460145 0.0 
1.38609 -0.847178 0.0 
0.520909 -0.0389841 0.0 
4.55484 0.54821 0.0 
1.4616 0.543244 0.0 
-1.51227 -3.24022 0.0 
0.195347 -0.0434187 0.0 
0.773677 0.0218742 0.0 
2.8431 0.557929 0.0 
0.716175 0.028287 0.0 
2.39889 -2.99953 0.0 
-0.51449 -0.450123 0.0 
0.258525 0.0466297 0.0 
4.25711 0.659543 0.0 
-2.40935 0.24635 0.0 
0.709715 0.026853 0.0 
0.461961 -0.0451465 0.0 
4.33861 1.14821 0.0 
1.20554 -2.71579 0.0 
4.74695 -0.0834236 0.0 
-1.25611 -2.04971 0.0 
0.105046 -0.035758 0.0 
4.33429 0.977449 0.0 
5.09236 -1.028 0.0 
3.17292 -0.964184 0.0 
0.783705 -0.0213671 0.0 
-0.696512 0.213324 0.0 
0.694681 -1.0517 0.0 
2.0986 0.950783 0.0 
-0.144149 -1.14963 0.0 
5.98059 -0.0630815 0.0 
0.272064 0.0469145 0.0 
7.58514 -1.24129 0.0 
0.163388 0.0413523 0.0 
1.3889 0.372075 0.0 
4.27843 -0.00377209 0.0 
0.744189 -0.0244378 0.0 
2.79687 -2.66962 0.0 
0.653549 0.0309269 0.0 
2.68167 3.30593 0.0 
0.794288 0.0215449 0.0 
-2.47477 1.26123 0.0 
5.09925 -1.86304 0.0 
-0.466599 0.560973 0.0 
-0.330097 -1.0788 0.0 
5.7239 -0.911637 0.0 
3.61674 6.08518 0.0 
0.362692 0.525858 0.0 
3.19883 0.102832 0.0 
0.22945 2.81099 0.0 
0.641973 0.0318816 0.0 
7.10696 -3.51522 0.0 
1.0976 -0.906533 0.0 
-0.983346 0.0960112 0.0 
3.69587 0.974536 0.0 
0.43894 0.0460078 0.0 
5.1257 0.97087 0.0 
-0.622535 0.30182 0.0 
-1.56092 3.32284 0.0 
5.43119 -0.717194 0.0 
5.33983 1.75066 0.0 
-1.42733 7 0.0 
0.910732 -0.0118628 0.0 
2.4817 0.280534 0.0 
3.13538 2.12501 0.0 
0.361087 0.0547235 0.0 
5.82914 1.78028 0.0 
-0.821698 0.503315 0.0 
0.290106 -0.049867 0.0 
4.75976 3.94984 0.0 
1.82454 0.70259 0.0 
-1.63339 5.68418 0.0 
0.566444 0.0366038 0.0 
2.31934 -1.53538 0.0 
0.25718 0.0458892 0.0 
2.57004 -1.3673 0.0 
3.63568 -1.99783 0.0 
0.530012 -0.039092 0.0 
0.649549 -0.0431496 0.0 
4.32836 0.47074 0.0 
0.655561 0.817909 0.0 
3.18094 -0.81054 0.0 
-0.426085 0.78836 0.0 
0.863499 0.0220645 0.0 
3.9173 -2.64737 0.0 
1.81616 0.825568 0.0 
5.21321 -0.3675 0.0 
5.05131 -2.3443 0.0 
2.76676 -0.692798 0.0 
0.523287 -0.0392515 0.0 
-0.334864 -1.48154 0.0 
-0.686158 0.502283 0.0 
1.92641 0.64398 0.0 
0.731698 -0.0325633 0.0 
0.856785 -0.0286247 0.0 
7.15765 -0.0187663 0.0 
0.379531 -0.0439182 0.0 
4.50834 1.24285 0.0 
5.04618 1.12251 0.0 
-2.75505 1.07417 0.0 
-0.376301 0.599203 0.0 
3.44752 -0.852391 0.0 
0.698623 0.0279606 0.0 
0.121194 0.0455902 0.0 
5.716 0.456114 0.0 
0.808472 1.96142 0.0 
6.81304 0.755503 0.0 
-0.0582398 -0.866136 0.0 
7.71188 -2.96547 0.0 
-3.53705 1.25281 0.0 
0.465882 -0.0460405 0.0 
2.68677 1.09402 0.0 
0.248043 0.0606486 0.0 
5.1925 -0.455267 0.0 
4.24047 0.492028 0.0 
0.110835 -0.0368906 0.0 
-4.31281 0.610337 0.0 
5.32607 -0.517305 0.0 
0.295832 0.0451375 0.0 
1.6222 -1.05255 0.0 
4.61321 0.946391 0.0 
1.26604 -1.76966 0.0 
13.473 0.899641 0.0 
0.616902 -0.0332103 0.0 
0.809136 -0.975967 0.0 
4.51167 -3.90486 0.0 
3.31578 -0.147805 0.0 
-1.70514 0.742376 0.0 
0.140221 -0.0404193 0.0 
-2.86794 -1.50104 0.0 
-3.9925 0.39875 0.0 
0.688043 -0.0283487 0.0 
0.41163 0.0431436 0.0 
0.070736 0.0310864 0.0 
0.60708 -0.0352384 0.0 
5.6406 -0.275737 0.0 
6.11037 -2.86662 0.0 
-1.04888 -2.63871 0.0 
-1.14969 -3.07497 0.0 
1.73323 -4.24468 0.0 
-1.4039 -0.0451297 0.0 
6.09745 -0.766074 0.0 
0.273565 -0.0568202 0.0 
-1.09339 -0.536899 0.0 
0.00345425 -2.89962 0.0 
6.81416 0.1292 0.0 
0.517155 -0.0432512 0.0 
6.01276 1.28167 0.0 
13.9816 4.77172 0.0 
0.28396 -0.0453167 0.0 
2.88058 -0.741008 0.0 
7.84664 -1.16271 0.0 
2.15075 -1.20416 0.0 
3.54818 -1.20239 0.0 
0.473618 -0.0401675 0.0 
14.87 -0.029199 0.0 
1.00775 4.0316 0.0 
0.974025 -0.0409629 0.0 
8.22526 -4.8738 0.0 
0.887209 -0.544502 0.0 
0.998481 -0.832441 0.0 
0.568923 0.0364122 0.0 
0.727782 0.0259556 0.0 
5.48092 1.38943 0.0 
-1.83845 -0.200487 0.0 
4.07801 1.29724 0.0 
2.08625 -0.925211 0.0 
0.0620809 -0.817764 0.0 
5.27023 -0.626315 0.0 
0.912606 -0.011047 0.0 
5.49899 -0.273558 0.0 
3.90043 4.10085 0.0 
0.0225377 3.95803 0.0 
5.21047 -0.750396 0.0 
-0.521178 -1.1139 0.0 
-4.44721 3.72648 0.0 
1.36924 0.584406 0.0 
-0.253096 1.92927 0.0 
3.93985 2.09146 0.0 
0.774692 0.0307712 0.0 
-2.02904 3.58675 0.0 
3.2496 -2.26857 0.0 
5.32949 -0.773983 0.0 
2.23867 1.77032 0.0 
1.10652 -1.9489 0.0 
0.312913 -0.0849242 0.0 
0.0172552 -0.0162453 0.0 
9.45979 0.781166 0.0 
6.74235 6.39225 0.0 
4.68058 2.94067 0.0 
15.5 -1.66279 0.0 
3.62151 -1.55948 0.0 
0.397477 0.0436231 0.0 
0.657063 -2.70441 0.0 
-1.28443 -4.02214 0.0 
2.83372 -3.64336 0.0 
5.09615 0.78562 0.0 
0.555374 0.97002 0.0 
4.12345 -0.30452 0.0 
1.90219 2.04198 0.0 
6.28646 5.2043 0.0 
0.144398 2.14983 0.0 
0.956097 0.00557641 0.0 
5.95507 -1.30786 0.0 
5.28508 -1.41701 0.0 
0.432992 -1.28321 0.0 
0.23712 -0.0595424 0.0 
5.60263 1.58075 0.0 
0.664231 0.0303894 0.0 
0.386978 2.29806 0.0 
5.26558 1.13033 0.0 
-3.13271 -2.17991 0.0 
2.1442 -1.39367 0.0 
-0.206047 6.45275 0.0 
-4.12487 -2.83898 0.0 
5.83445 0.975451 0.0 
4.31721 4.04332 0.0 
3.07279 0.575238 0.0 
0.608711 -0.0348912 0.0 
4.43117 3.64632 0.0 
3.19622 -1.06892 0.0 
1.75502 -1.91759 0.0 
8.9956 3.97791 0.0 
11.4173 3.59115 0.0 
0.696639 0.0581677 0.0 
1.37197 -0.474784 0.0 
4.33724 -6.58225 0.0 
-1.74472 1.55061 0.0 
1.56045 1.14697 0.0 
13.9459 -3.10045 0.0 
-1.52858 0.284609 0.0 
0.106452 0.0364003 0.0 
-0.919681 0.994772 0.0 
3.52309 1.62761 0.0 
3.72888 -0.862891 0.0 
1.42118 -3.00108 0.0 
-1.07301 -6.0599 0.0 
1.40469 -0.738384 0.0 
4.95271 -3.62788 0.0 
5.40941 0.71042 0.0 
0.0146518 -0.0153777 0.0 
2.39027 0.982076 0.0 
-3.0083 2.64591 0.0 
1.14279 -1.05216 0.0 
1.71616 -3.85788 0.0 
0.980652 -1.61171 0.0 
1.25891 -2.13878 0.0 
-1.36365 -0.87363 0.0 
0.610031 -0.0346186 0.0 
-0.557188 -0.335255 0.0 
0.541448 -2.2265 0.0 
-0.545654 0.489578 0.0 
7.26064 2.03351 0.0 
0.604301 1.12738 0.0 
5.57108 -0.830566 0.0 
2.68815 -1.19547 0.0 
6.2361 -1.41474 0.0 
1.66026 2.81597 0.0 
-0.477172 -3.29624 0.0 
10.0245 -3.30748 0.0 
5.02743 0.40075 0.0 
0.0402966 -0.0250356 0.0 
0.107464 -0.044637 0.0 
14.2747 6.40505 0.0 
3.98603 -3.11015 0.0 
-3.89751 -1.54046 0.0 
-1.64818 0.0546894 0.0 
-1.42996 0.459698 0.0 
2.46657 -2.69838 0.0 
0.0143401 -0.0718848 0.0 
0.0999988 0.0356153 0.0 
0.774483 0.0260124 0.0 
-0.979663 -0.741265 0.0 
-3.94398 -5.64295 0.0 
5.3254 1.99652 0.0 
0.351769 -1.60556 0.0 
8.56083 -0.889949 0.0 
1.95068 -1.23123 0.0 
-3.91942 4.62704 0.0 
0.247881 -0.0952808 0.0 
-1.06096 -1.19217 0.0 
4.79818 -5.95027 0.0 
-3.24218 -1.28865 0.0 
0.663356 0.0302614 0.0 
1.24529 -0.90962 0.0 
2.7168 0.0441524 0.0 
-0.782758 -0.876825 0.0 
5.78736 -1.72714 0.0 
2.23835 1.05059 0.0 
-0.788002 4.00714 0.0 
0.203486 0.0442897 0.0 
2.90626 -1.72723 0.0 
0.709537 0.0263426 0.0 
5.97351 -3.18221 0.0 
2.38312 -0.608132 0.0 
[...]
<PointData>
  <DataArray type = "Float64" Name="VitesseP1" NumberOfComponents="3" format="ascii">
1 0 0.0 
1.00001 0 0.0 
1.00001 0 0.0 
1 0 0.0 
0.998572 -0.000207294 0.0 
0.0278004 0.0016134 0.0 
0.993113 0.00609497 0.0 
0.999224 -0.000635792 0.0 
1.02225 0.0187068 0.0 
0.723976 0.401106 0.0 
0.999722 0.00047776 0.0 
1.00044 -0.00129441 0.0 
1.00103 -0.000932557 0.0 
0.997502 -0.00143197 0.0 
0.999513 0.000194226 0.0 
0.998855 -0.00177861 0.0 
0.999474 -2.43664e-05 0.0 
0.999342 9.54793e-05 0.0 
1.84603e-210 0 0.0 
0.999539 0.00587757 0.0 
1.00152 -0.000395644 0.0 
0.989556 -0.00621998 0.0 
1.00018 0.000213552 0.0 
0.738555 0.0589878 0.0 
0.998847 -0.000158019 0.0 
0.997107 0.000700769 0.0 
0.999651 -0.000122311 0.0 
1.06409 -0.0511829 0.0 
1.00017 0.00112913 0.0 
0.999927 -1.1581e-06 0.0 
1.00141 -0.00305479 0.0 
1.00021 -0.000265617 0.0 
1.00121 -8.72312e-05 0.0 
0.997212 -0.00219127 0.0 
1.00974 0.00602661 0.0 
0.992984 0.00836177 0.0 
1.10492 0.0744035 0.0 
0.0480662 -0.00311418 0.0 
0.99594 -0.00136485 0.0 
0.999883 4.01216e-05 0.0 
0.999526 8.18071e-05 0.0 
0.998897 -0.000774934 0.0 
1.00043 0.00697492 0.0 
1.00855 -0.00108629 0.0 
0.999894 -0.000126006 0.0 
0.998491 -0.00249135 0.0 
1.84603e-210 0 0.0 
1.00666 0.00272829 0.0 
0.999291 0.000202225 0.0 
0.998037 0.000220638 0.0 
0.999542 -0.000248066 0.0 
1.84603e-210 0 0.0 
1.00034 0.000366684 0.0 
0.999285 -0.000144654 0.0 
0.99922 -0.000460445 0.0 
1.84603e-210 0 0.0 
1.08105e-08 2.08734e-09 0.0 
0.0324518 0.000316018 0.0 
1.12507 0.079057 0.0 
1.00084 0.00118523 0.0 
0.0222011 0.00218111 0.0 
1 -2.58498e-07 0.0 
0.251813 0.0232643 0.0 
0.998925 0.0017119 0.0 
1.00699 -0.0080626 0.0 
1.10461 -0.021235 0.0 
0.997976 0.00419831 0.0 
1.84603e-210 0 0.0 
0.999271 -0.00966598 0.0 
0.994836 -0.00134809 0.0 
1.00028 0.000677343 0.0 
0.999567 -0.0134967 0.0 
1.0006 0.000238348 0.0 
1.01209e-07 -1.17736e-08 0.0 
0.999313 0.0013543 0.0 
0.999824 0.00101597 0.0 
0.999884 6.82523e-05 0.0 
1.00656 0.0110783 0.0 
0.999933 0.000120499 0.0 
1.00037 -0.00476369 0.0 
0.999955 0.000287418 0.0 
0.999733 0.00517907 0.0 
0.998901 0.000890657 0.0 
0.999691 0.000344833 0.0 
0.999688 -0.000159193 0.0 
1.69085e-07 -1.12506e-08 0.0 
0.999371 -0.000252641 0.0 
0.849396 -0.0769408 0.0 
0.99935 -0.000158493 0.0 
0.999924 0.00389829 0.0 
1.0004 -5.75707e-05 0.0 
1.00014 -0.00380408 0.0 
0.999776 -6.40898e-05 0.0 
0.999426 5.68462e-05 0.0 
0.999139 -0.000688588 0.0 
0.998734 0.000917569 0.0 
0.626801 0.0213074 0.0 
0.998467 0.00359242 0.0 
1.84603e-210 0 0.0 
0.993886 0.00365526 0.0 
0.879212 0.0620742 0.0 
1.05783 -0.0528255 0.0 
0.999701 -0.000274149 0.0 
0.999178 -0.000852057 0.0 
1.00267 0.00316618 0.0 
0.204219 0.012765 0.0 
0.994649 -0.00579085 0.0 
1.84603e-210 0 0.0 
0.997635 -0.00171329 0.0 
0.999751 -0.00011461 0.0 
1.09232 0.0343394 0.0 
0.98546 0.0269662 0.0 
0.999143 2.4623e-06 0.0 
1.84603e-210 0 0.0 
0.972343 0.0600024 0.0 
0.999984 -0.000161753 0.0 
0.033293 0.000272627 0.0 
1.08406 0.0110313 0.0 
1.01166 -0.035986 0.0 
0.996054 0.00289311 0.0 
0.999719 -1.60347e-05 0.0 
0.999147 -0.00175959 0.0 
0.997804 -0.00368312 0.0 
1.00092 -0.00366389 0.0 
1.00001 -0.00018082 0.0 
1.84603e-210 0 0.0 
1.00103 0.000240562 0.0 
1.00006 0.00103917 0.0 
0.997212 0.00667943 0.0 
0.536396 -0.0423593 0.0 
0.958602 -0.0921537 0.0 
0.992641 -0.000122288 0.0 
1.01515 0.0866841 0.0 
0.998942 -0.000117036 0.0 
0.999678 0.000180524 0.0 
0.555834 0.0185944 0.0 
1.00003 0.00745208 0.0 
0.0276317 0.00116292 0.0 
0.999493 -0.000180406 0.0 
0.995893 -0.00852702 0.0 
1.00064 -0.000773272 0.0 
0.0784378 -0.00454982 0.0 
1.84603e-210 0 0.0 
0.998385 -0.000919832 0.0 
0.302507 -0.0218627 0.0 
1.00059 0.000816787 0.0 
0.993942 -0.0103582 0.0 
0.340029 0.00510212 0.0 
0.999413 -0.000268663 0.0 
0.99876 0.00027392 0.0 
1.84603e-210 0 0.0 
0.618273 0.0248513 0.0 
0.99956 -0.000390976 0.0 
1.00151 0.000756436 0.0 
0.999516 2.33319e-05 0.0 
1.00061 -0.0016975 0.0 
1.84603e-210 0 0.0 
0.999514 -0.000349173 0.0 
0.999681 0.000210378 0.0 
0.999069 0.000916256 0.0 
3.58973e-06 2.46035e-07 0.0 
0.990631 0.00435864 0.0 
1.00837 0.00395591 0.0 
0.998628 -0.00294333 0.0 
1.00494 -0.00533704 0.0 
0.999759 6.96086e-06 0.0 
0.360521 0.00208251 0.0 
0.999913 6.0245e-05 0.0 
2.4868e-07 2.80313e-08 0.0 
0.992227 -0.0101576 0.0 
0.999349 1.22171e-07 0.0 
4.44912e-07 3.24632e-08 0.0 
1.00033 0.00091013 0.0 
3.85928e-08 -1.58196e-09 0.0 
1.0005 -0.00065362 0.0 
0.194099 -0.0137251 0.0 
0.999442 0.000945358 0.0 
0.999819 0.000307101 0.0 
0.996737 0.0111671 0.0 
1.00309 -0.00611386 0.0 
0.99976 0.000127761 0.0 
1.00038 -9.54278e-05 0.0 
1.02803 0.0026076 0.0 
0.998577 -0.000125117 0.0 
1.00172 0.000236274 0.0 
0.0329353 -0.00243995 0.0 
1.00001 0.000121212 0.0 
1.00404 0.00819666 0.0 
0.993618 0.000883395 0.0 
0.999307 -0.000578597 0.0 
0.621134 -0.0217955 0.0 
0.999681 -0.000199858 0.0 
0.990955 0.00703059 0.0 
1.0006 0.000736495 0.0 
0.999703 0.00012431 0.0 
0.999818 -0.00025974 0.0 
1.00047 0 0.0 
0.289788 0.0281994 0.0 
0.997367 -0.0008338 0.0 
0.999963 -0.000976617 0.0 
1.07837 -0.0191745 0.0 
0.999855 -0.000198669 0.0 
0.995395 0.00549688 0.0 
0.786788 -0.0029868 0.0 
1.00015 -0.000287724 0.0 
0.997421 -0.00436607 0.0 
1.00047 0.000170758 0.0 
0.0325955 -0.00283946 0.0 
0.99984 0.00201706 0.0 
0.202635 0.00198635 0.0 
0.999428 0.00173051 0.0 
0.999828 0.00074702 0.0 
0.124311 0.00544539 0.0 
1.03991 0.0678273 0.0 
0.999406 -0.0001871 0.0 
1.01248 -0.00620779 0.0 
0.998936 0.000818641 0.0 
1.00052 0.00912442 0.0 
0.891063 -0.0780202 0.0 
1.00003 0.000579039 0.0 
0.998221 -0.00434309 0.0 
0.999641 7.56681e-05 0.0 
0.999905 0.000333276 0.0 
0.998461 0.00116906 0.0 
0.0923215 0.00258656 0.0 
1.00283 -0.0033531 0.0 
0.994997 0.00706728 0.0 
0.997113 -0.00365434 0.0 
0.902708 0.0669821 0.0 
1.00282 0.0859259 0.0 
0.999868 9.05522e-07 0.0 
1.84603e-210 0 0.0 
0.999619 -0.00036111 0.0 
0.999689 -0.00023503 0.0 
0.999406 0.000726872 0.0 
0.998741 0.0126 0.0 
0.999126 0.000651512 0.0 
0.0226802 -0.00219683 0.0 
1.08351 0.11693 0.0 
0.999731 -6.85654e-05 0.0 
1.00294 -0.00103217 0.0 
0.999855 -5.78788e-05 0.0 
1.00759 -0.00871428 0.0 
0.999984 9.30087e-05 0.0 
0.999715 0.000478105 0.0 
0.750037 0.0305192 0.0 
0.999032 -0.0015596 0.0 
1.12742 0.0248872 0.0 
0.999642 9.46847e-05 0.0 
0.999376 -0.000208294 0.0 
0.0499337 -0.00371209 0.0 
0.999861 0.0002142 0.0 
0.999671 9.7574e-05 0.0 
2.09354e-08 4.82078e-10 0.0 
1.00002 0.00484447 0.0 
0.999576 -0.000276159 0.0 
1.0023 0.00227782 0.0 
0.999993 -2.45657e-06 0.0 
1.84603e-210 0 0.0 
1.00781 0.00595933 0.0 
1.00017 0.000318947 0.0 
0.998713 0.000150799 0.0 
0.998337 0.00158801 0.0 
0.186281 -0.0142985 0.0 
0.999663 -0.000780218 0.0 
0.999751 0.000143026 0.0 
1.84603e-210 0 0.0 
1.84603e-210 0 0.0 
0.0441728 0.00617476 0.0 
0.226427 0.0114695 0.0 
0.999713 4.30852e-05 0.0 
0.999974 0.000196705 0.0 
1.00095 -0.00113554 0.0 
1.00082 -0.000836719 0.0 
1.00074 0.000300938 0.0 
0.996437 -0.000238789 0.0 
0.999793 8.81965e-05 0.0 
1.11519 -0.0118151 0.0 
0.996492 -0.00327847 0.0 
1.00157 -0.000409245 0.0 
0.999843 -1.03663e-05 0.0 
0.686483 0.0332521 0.0 
0.99982 -0.000143569 0.0 
1 -3.66024e-06 0.0 
0.0352583 0.000709706 0.0 
0.998632 0.00106383 0.0 
0.999921 4.88582e-05 0.0 
0.999347 0.00263879 0.0 
0.999382 0.000729674 0.0 
1.84603e-210 0 0.0 
0.999995 2.00111e-08 0.0 
1.00093 -0.000173728 0.0 
0.965179 0.0814932 0.0 
1.00004 5.57454e-05 0.0 
1.00912 0.0181928 0.0 
1.00553 0.00947885 0.0 
0.0348333 -0.00193192 0.0 
0.0600582 -0.00453398 0.0 
0.999781 -0.000208371 0.0 
0.997875 -0.000480109 0.0 
0.999553 -0.000502162 0.0 
0.998518 0.00299878 0.0 
1.01065 -0.00843437 0.0 
0.999668 0.000121498 0.0 
0.190423 0.0183538 0.0 
0.99969 4.63631e-05 0.0 
1.00027 -0.000349705 0.0 
1.00098 0.000168842 0.0 
0.99967 0.000149875 0.0 
1.00159 -0.00553082 0.0 
1 0.000446313 0.0 
0.997042 -0.00981357 0.0 
1.00242 0.00178272 0.0 
0.999848 -0.000619271 0.0 
0.960264 -0.0763048 0.0 
1.00045 0.000627243 0.0 
1.00001 0.000886023 0.0 
0.999692 0.000141742 0.0 
1.00022 -0.00187922 0.0 
1.00241 0.0016206 0.0 
1.10871 -0.00162658 0.0 
1.84603e-210 0 0.0 
0.999959 -1.57736e-05 0.0 
1.00012 -2.98625e-05 0.0 
1.00002 -0.000383004 0.0 
0.999996 3.22541e-07 0.0 
0.999602 0.000754559 0.0 
1.84603e-210 0 0.0 
1.00182 0.000242463 0.0 
1.00066 -0.000468384 0.0 
1.00047 0.000527145 0.0 
0.999652 -0.000169709 0.0 
1.01082 -0.00256992 0.0 
0.999298 0.000142971 0.0 
1.00086 -0.0017568 0.0 
1.00012 -0.000103768 0.0 
1.00264 0.000661384 0.0 
0.0294648 -0.00321806 0.0 
0.999816 0.000150023 0.0 
0.999765 0.00023675 0.0 
1.00693 0.00014176 0.0 
1.12872 -0.0306738 0.0 
0.999816 -0.000210864 0.0 
0.0305052 -0.00139509 0.0 
1.00249 8.90968e-05 0.0 
0.999721 -0.000204768 0.0 
0.999935 -0.000716874 0.0 
0.999767 0.00247133 0.0 
1.00058 2.83666e-05 0.0 
1.00002 -0.000550122 0.0 
0.999779 -0.00012802 0.0 
1.00021 -0.000319134 0.0 
0.998662 -0.000717912 0.0 
0.18234 0.00979475 0.0 
1.00015 -0.000355934 0.0 
0.999169 0.000944961 0.0 
1.00103 0.00200218 0.0 
1.00001 -4.94144e-05 0.0 
1 -1.72869e-05 0.0 
1.04291 -0.0697881 0.0 
0.994888 0.0105252 0.0 
1.0003 4.03776e-05 0.0 
0.99974 0.00168553 0.0 
1.00067 -0.00458218 0.0 
0.999999 4.3556e-06 0.0 
0.997111 0.000977843 0.0 
0.0531795 0.00809104 0.0 
0.999156 0.00437921 0.0 
0.999641 -0.00081606 0.0 
0.999269 0.00051255 0.0 
1.0012 0.000689447 0.0 
1.00053 -9.49902e-05 0.0 
0.999097 0.00812643 0.0 
1.0001 0.000294746 0.0 
0.9997 -0.000126522 0.0 
0.0998027 -0.0530595 0.0 
0.998735 -0.00209689 0.0 
1.00007 0.000708957 0.0 
1.00337 0.00618412 0.0 
1.00081 0.000399023 0.0 
1.00344 0.00228906 0.0 
1.00189 0.00145675 0.0 
0.998383 -0.00255447 0.0 
0.146703 0.00852224 0.0 
0.990777 -0.00878574 0.0 
1.00262 0.000154039 0.0 
0.994813 0.00972832 0.0 
0.999934 -0.000100861 0.0 
1.008 -0.00228801 0.0 
0.999734 0.000129881 0.0 
0.999179 0.00157311 0.0 
0.999847 0.000136333 0.0 
1.0011 -0.000887956 0.0 
1.00112 -0.000545709 0.0 
0.999998 3.25113e-05 0.0 
0.999603 -9.56394e-05 0.0 
0.138883 -0.0348964 0.0 
1.10689 -0.137488 0.0 
1.00001 -8.83756e-07 0.0 
1.00012 0.000493207 0.0 
0.999857 -0.000481589 0.0 
0.997348 0.000185733 0.0 
0.997265 0.00166051 0.0 
1.00053 0.000983114 0.0 
0.97675 -0.190523 0.0 
0.0650667 0.00964892 0.0 
0.62167 -0.04986 0.0 
0.997626 -0.00438187 0.0 
1.00013 -0.000236841 0.0 
0.999858 -0.000277595 0.0 
1.00471 -0.000420359 0.0 
0.99994 2.70363e-05 0.0 
0.99968 0.00314938 0.0 
1.00011 0.000358163 0.0 
1.11146 -0.0285225 0.0 
0.999651 -0.00338708 0.0 
1.00025 9.48659e-05 0.0 
0.999663 -0.000585889 0.0 
3.50215e-08 -2.48657e-09 0.0 
1.00193 0.00762215 0.0 
0.997793 -0.000100899 0.0 
0.998945 -0.00543272 0.0 
0.999846 0.000199502 0.0 
0.998896 -0.00252724 0.0 
1.0008 0.000389683 0.0 
0.179204 0.00610292 0.0 
0.999758 0.00124422 0.0 
1.84603e-210 0 0.0 
1.00001 0.000206254 0.0 
0.99778 0.00176358 0.0 
0.999917 -0.000181867 0.0 
0.999844 6.51193e-05 0.0 
1.84603e-210 0 0.0 
2.54632e-08 -2.5708e-09 0.0 
0.999977 0.00010884 0.0 
0.999784 -0.000735764 0.0 
1.00002 3.81174e-05 0.0 
0.999578 0.000653693 0.0 
1 -5.54549e-05 0.0 
0.99688 0.00265785 0.0 
0.999644 0.000448713 0.0 
0.999911 -0.00206324 0.0 
0.999983 2.65606e-05 0.0 
1.00011 0.000297616 0.0 
0.999994 1.3584e-05 0.0 
1.01799 -0.000905519 0.0 
0.999623 -0.0001639 0.0 
0.995044 -0.00444012 0.0 
0.999747 2.37603e-05 0.0 
0.999562 4.99114e-05 0.0 
0.99957 0.000464921 0.0 
0.999735 0.00135159 0.0 
1.00164 -0.00241531 0.0 
1.00099 -0.000456011 0.0 
1 -0.000462565 0.0 
0.999155 0.00104728 0.0 
0.998836 0.00113804 0.0 
0.997337 0.00126363 0.0 
0.997176 -0.000398068 0.0 
0.999914 0.000220778 0.0 
1.00738 -0.00555751 0.0 
0.999257 0.000444012 0.0 
0.999871 -0.000393779 0.0 
0.999967 4.21405e-05 0.0 
0.999782 -0.000283353 0.0 
1.00476 -0.00725895 0.0 
0.997689 0.000566579 0.0 
0.999994 4.22852e-06 0.0 
0.999785 -0.000655518 0.0 
1.00016 -9.35252e-05 0.0 
1.02121 -0.011531 0.0 
0.999541 0.000187697 0.0 
0.998662 0.00124575 0.0 
0.99981 -0.000362363 0.0 
1.0008 0.0007557 0.0 
0.999996 -3.62469e-06 0.0 
1.00056 -0.000313359 0.0 
1.00001 -7.80353e-06 0.0 
1.00002 -9.86564e-05 0.0 
0.999988 -5.06497e-05 0.0 
0.9985 0.00559838 0.0 
1.00554 -0.000612437 0.0 
1.00001 -2.40715e-05 0.0 
0.999974 -7.60972e-06 0.0 
0.999942 -2.55607e-05 0.0 
0.976051 0.0848803 0.0 
1.00005 -2.26617e-05 0.0 
0.225762 0.0140337 0.0 
0.999606 0.000217877 0.0 
1.00009 0.00077161 0.0 
0.999891 0.000100781 0.0 
0.999337 0.000144928 0.0 
1.00075 -0.00140093 0.0 
1.0001 -4.96243e-05 0.0 
0.999366 0.00048061 0.0 
0.999885 0.000206952 0.0 
1.00572 -0.00356847 0.0 
1.01498 0.0080521 0.0 
0.999953 -3.23088e-05 0.0 
0.999664 -0.000106039 0.0 
0.980672 0.0752294 0.0 
0.999316 0.000426585 0.0 
0.999934 7.26453e-06 0.0 
0.999832 3.25159e-05 0.0 
0.999058 -0.000790994 0.0 
1 1.41982e-06 0.0 
1.09055 -0.261997 0.0 
1 -4.37654e-06 0.0 
1.84603e-210 0 0.0 
1.00161 -0.00124122 0.0 
0.999913 0.000426001 0.0 
1.00038 -0.000187951 0.0 
1.00125 -0.000335547 0.0 
1.00056 -0.000482126 0.0 
1.00049 -0.00127245 0.0 
0.999849 4.30095e-05 0.0 
0.927861 0.00140759 0.0 
0.999997 -2.35071e-06 0.0 
1.00034 -0.000217975 0.0 
0.999964 3.22354e-05 0.0 
1.00013 -0.000457242 0.0 
1.00046 -6.48265e-05 0.0 
0.999793 -0.000897624 0.0 
0.999751 -0.000187455 0.0 
0.999998 6.12109e-06 0.0 
1.00603 0.000710422 0.0 
0.999608 -0.0015109 0.0 
1.84603e-210 0 0.0 
1.01151 0.010007 0.0 
0.999525 0.000138154 0.0 
0.999994 1.21378e-07 0.0 
0.999564 0.000257938 0.0 
1.00134 -0.00164004 0.0 
0.999891 5.85162e-05 0.0 
1.00076 0.000925128 0.0 
0.997189 0.00475567 0.0 
9.37915e-08 -4.78083e-08 0.0 
1.00251 0.00463987 0.0 
0.999952 5.77751e-05 0.0 
0.0579762 -0.00854998 0.0 
0.999338 -0.000908538 0.0 
1.00284 0.00119529 0.0 
1.00001 -0.000537685 0.0 
0.999762 -0.00052974 0.0 
1.00067 -0.00013619 0.0 
1.00083 0.00599932 0.0 
0.994141 -0.000623724 0.0 
1.00533 -0.0107802 0.0 
1.00074 -0.000672271 0.0 
1.00012 0.00142082 0.0 
0.990407 -0.0891197 0.0 
1.0007 0.000314852 0.0 
1 6.21419e-06 0.0 
0.817195 0.0606196 0.0 
4.98077e-08 4.43407e-10 0.0 
1.00103 -0.000251502 0.0 
0.998826 0.00077168 0.0 
1.00057 0.000363823 0.0 
0.999896 -0.000337022 0.0 
0.910419 -0.0591555 0.0 
1.84603e-210 0 0.0 
0.999778 -0.000103123 0.0 
1.00012 -0.000703103 0.0 
0.999981 2.20169e-06 0.0 
1.00005 0.000365203 0.0 
1.02519 0.0536147 0.0 
0.107339 0.00496849 0.0 
0.99979 0.000120838 0.0 
0.99999 -0.000422048 0.0 
0.999184 -0.00222914 0.0 
0.998988 -0.00292212 0.0 
0.999715 -0.000150081 0.0 
1.02496 -0.018351 0.0 
0.999521 0.00117123 0.0 
1.00208 -0.00353391 0.0 
0.999472 -0.000480254 0.0 
0.999901 -8.59164e-05 0.0 
0.998682 -0.000993647 0.0 
1.02753 0.0741564 0.0 
1.00007 1.41974e-05 0.0 
1.00019 0.00117437 0.0 
0.999697 0.000163484 0.0 
0.999872 -0.000108505 0.0 
0.0336503 -0.000283245 0.0 
1.00039 -0.000196737 0.0 
1 7.56182e-06 0.0 
1.84603e-210 0 0.0 
0.997112 0.000992266 0.0 
0.996474 0.00405223 0.0 
1.00238 -0.00239402 0.0 
6.85977e-08 -1.39389e-09 0.0 
1.00233 0.00102253 0.0 
0.99993 -2.86723e-05 0.0 
1.00577 0.00139339 0.0 
0.998977 -0.00091152 0.0 
0.999913 -0.00161922 0.0 
1.00042 -0.000156502 0.0 
1.0003 8.56526e-05 0.0 
1.84603e-210 0 0.0 
0.999854 -0.000470272 0.0 
0.999998 1.55708e-06 0.0 
0.999474 0.00198385 0.0 
1.00179 0.00107467 0.0 
0.999996 -3.56301e-05 0.0 
1.84603e-210 0 0.0 
0.995396 -0.000882102 0.0 
0.99855 -0.00057509 0.0 
0.999231 0.000184772 0.0 
1.00021 -0.000423464 0.0 
0.996382 0.000986864 0.0 
0.999214 -0.000241992 0.0 
0.99951 0.000400109 0.0 
1.00009 0.000448459 0.0 
0.999066 0.00128154 0.0 
0.999992 6.11356e-05 0.0 
1.00048 -0.000580386 0.0 
1.00002 6.20985e-06 0.0 
0.999037 -0.00444988 0.0 
0.999783 0.000155247 0.0 
0.31948 -0.0173073 0.0 
1.00025 0.000171991 0.0 
1.84603e-210 0 0.0 
1.00016 0.000329021 0.0 
1.00071 -0.000226725 0.0 
0.998999 -0.000279507 0.0 
1.00014 -0.000127536 0.0 
0.999725 0.000274002 0.0 
1.00248 -0.000411197 0.0 
1.00024 0.000281468 0.0 
1.00006 -4.64012e-05 0.0 
0.999889 0.000146515 0.0 
0.0424978 0.00268515 0.0 
0.999733 0.0035267 0.0 
1.00014 -0.000141597 0.0 
1.00106 -0.000649298 0.0 
1.00078 -0.000439699 0.0 
0.0348632 -0.0016345 0.0 
1.10963 -0.012292 0.0 
0.999931 -0.000207422 0.0 
1.00128 0.0037159 0.0 
0.996926 -0.00310734 0.0 
1.01246 0.00382233 0.0 
0.99991 -0.000105761 0.0 
0.999626 0.000583094 0.0 
1.00033 -0.000297306 0.0 
0.172735 0.0121744 0.0 
0.999964 -0.000294536 0.0 
1.00085 0.00182134 0.0 
0.999686 0.000402718 0.0 
0.032038 0.000605968 0.0 
0.170524 0.0133491 0.0 
1.00018 0.00247674 0.0 
1.00017 5.6664e-05 0.0 
0.99923 0.00108665 0.0 
1.00021 9.07129e-05 0.0 
1.00091 0.00013735 0.0 
0.999347 -0.000614766 0.0 
1.00013 7.49962e-05 0.0 
1 1.8112e-06 0.0 
0.990584 0.00921118 0.0 
0.866115 0.067828 0.0 
0.999679 -0.00269391 0.0 
1.00601 0.00457455 0.0 
1 -3.60308e-06 0.0 
1.00121 -0.00124164 0.0 
1.0007 5.45883e-05 0.0 
0.9996 0.000402277 0.0 
0.998933 0.00187582 0.0 
0.999947 0.000213437 0.0 
1.00076 0.000565657 0.0 
1.84603e-210 0 0.0 
0.999817 -7.17445e-05 0.0 
0.999985 -7.18405e-07 0.0 
0.997176 0.00111093 0.0 
1.00073 -1.34066e-07 0.0 
1.00115 0.0015583 0.0 
1.00005 3.22081e-05 0.0 
0.999997 1.27003e-06 0.0 
1.84603e-210 0 0.0 
1.00326 -0.000677816 0.0 
1.00007 -0.000457583 0.0 
1.00021 -0.000152786 0.0 
1 1.47725e-05 0.0 
1.00013 -0.000157149 0.0 
1.00086 -0.000100015 0.0 
0.99902 0.0010767 0.0 
1.00118 0.00130387 0.0 
0.999795 -2.47488e-05 0.0 
0.999948 9.29688e-05 0.0 
1.00061 -4.32385e-05 0.0 
1.00007 -0.000493517 0.0 
0.998868 0.00143877 0.0 
1.00389 -0.00509608 0.0 
1.0001 6.04548e-05 0.0 
1.00173 -0.00682952 0.0 
1.00003 6.75577e-06 0.0 
1.00046 -9.59425e-05 0.0 
1.00029 0.000187497 0.0 
1.00012 0.000163842 0.0 
1.00052 -0.000415012 0.0 
1.00047 -0.000348505 0.0 
1.00047 0 0.0 
1.00114 -0.00285522 0.0 
1.00014 0 0.0 
0.0296454 0.000905945 0.0 
0.895126 0.0691407 0.0 
0.999968 -0.0055315 0.0 
0.999948 2.51537e-06 0.0 
1.00002 6.40462e-05 0.0 
1.00007 0.00141433 0.0 
0.99514 -0.00344386 0.0 
1.00053 0.000899514 0.0 
0.999734 4.41892e-06 0.0 
1.00061 0.000102269 0.0 
1.00118 -0.00143445 0.0 
1.00001 0.000563564 0.0 
1.00215 -0.000403729 0.0 
1.00004 -4.63926e-05 0.0 
0.999968 0.000680056 0.0 
1.0091 0.0223358 0.0 
1.00009 0.000172478 0.0 
0.999819 0.000105673 0.0 
1.00279 -0.00827056 0.0 
0.999378 0.000217333 0.0 
1.0007 0.000493663 0.0 
1.00016 0.000399496 0.0 
1.84603e-210 0 0.0 
1.00016 -5.59862e-05 0.0 
0.999715 0.000743114 0.0 
1.0002 4.4887e-05 0.0 
0.999963 5.12416e-05 0.0 
0.999476 0.000849747 0.0 
1.00025 -0.001903 0.0 
1.84603e-210 0 0.0 
1.84603e-210 0 0.0 
0.994372 0.00359109 0.0 
1.00052 0.000301542 0.0 
1 -2.02627e-05 0.0 
1 -2.44146e-06 0.0 
1.00211 -0.00128039 0.0 
0.999822 -1.78688e-05 0.0 
0.999966 -7.92132e-05 0.0 
0.999659 -0.000682331 0.0 
1.00377 0.00482101 0.0 
1.00118 0.000210735 0.0 
0.999146 0.00394637 0.0 
1.84603e-210 0 0.0 
1.00063 0.00122117 0.0 
0.999989 -5.76428e-06 0.0 
0.997757 -0.00149493 0.0 
0.999819 -3.67928e-05 0.0 
0.99997 -2.02798e-05 0.0 
0.999994 1.89801e-06 0.0 
0.999989 -9.11935e-06 0.0 
0.9993 -0.0012089 0.0 
0.998499 -1.53304e-05 0.0 
1.00069 0.000793467 0.0 
1.00006 -0.000116953 0.0 
1.00013 4.38999e-05 0.0 
0.998476 0.000990126 0.0 
1.01109 0.000313525 0.0 
0.107373 0.00321896 0.0 
1.0021 0.000511294 0.0 
1.00222 -0.000947388 0.0 
1.00004 0.000357135 0.0 
0.999899 -0.000432205 0.0 
1.00085 -0.000574016 0.0 
1.00099 -0.0022725 0.0 
1.00056 -0.000324198 0.0 
1.00001 2.54989e-06 0.0 
0.997862 0.0011866 0.0 
0.999987 -6.16991e-05 0.0 
3.14695e-08 -6.82646e-09 0.0 
1.00002 1.67438e-05 0.0 
0.999694 8.36862e-05 0.0 
1.00154 0.00249901 0.0 
0.150356 0.00872142 0.0 
1.00054 0.000163195 0.0 
1.00141 0.00477733 0.0 
1.00028 -0.000538324 0.0 
0.999975 -2.5136e-05 0.0 
0.999966 -5.08666e-05 0.0 
0.998101 -0.00145961 0.0 
1.00022 0.00043085 0.0 
1.00005 0.000267858 0.0 
1.00082 0.0117286 0.0 
0.999994 -2.94902e-05 0.0 
0.996826 -0.00231139 0.0 
0.99995 -0.00110156 0.0 
1.00045 0.000782617 0.0 
0.999989 3.07192e-05 0.0 
0.999924 0.000191961 0.0 
0.998102 -0.00266982 0.0 
1.00078 0.00100571 0.0 
0.999313 -0.000155412 0.0 