<VTKFile type="UnstructuredGrid" version="0.1" byte_order="LittleEndian">
  <UnstructuredGrid>
    <Piece NumberOfPoints="9712" NumberOfCells="19403">
      <Points>
        <DataArray type = "Float64" NumberOfComponents="3" format="ascii">
-5 -7 0.0 
15.5 -7 0.0 
15.5 7 0.0 
-5 7 0.0 
-1.6546 1.77742 0.0 
-2.13867 1.86504 0.0 
-1.83467 1.79143 0.0 
1.47969 -2.21179 0.0 
1.36003 -2.38618 0.0 
1.4346 -2.45048 0.0 
-2.04214 1.94165 0.0 
-0.20425 1.17338 0.0 
-2.07648 1.81911 0.0 
-2.00827 1.89081 0.0 
-2.05492 1.98872 0.0 
0.192693 0.536219 0.0 
0.154285 1.75648 0.0 
1.1379 -1.62057 0.0 
-2.11226 1.96977 0.0 
-1.74119 1.75327 0.0 
1.14499 -1.58184 0.0 
-1.94373 2.37229 0.0 
1.50619 -0.664239 0.0 
1.99658 -1.76705 0.0 
1.7229 -1.18344 0.0 
-1.97759 2.52091 0.0 
-0.768046 0.387136 0.0 
1.32657 -1.43969 0.0 
1.90142 0.24821 0.0 
-0.93264 1.51038 0.0 
1.09557 0.967223 0.0 
0.627111 0.757352 0.0 
-2.05707 2.31394 0.0 
1.34027 -2.45136 0.0 
-0.725097 0.397516 0.0 
-0.666094 2.30428 0.0 
-0.73829 -0.279965 0.0 
1.73336 -1.08822 0.0 
1.88466 -1.24421 0.0 
1.50539 -1.23752 0.0 
1.65978 -1.30759 0.0 
-0.0409718 0.542603 0.0 
1.6005 -1.1227 0.0 
1.78439 -0.941488 0.0 
1.86015 -1.54236 0.0 
1.49308 -1.40058 0.0 
2.34892 -1.47149 0.0 
2.13832 -1.3246 0.0 
1.73061 0.751302 0.0 
-0.580328 0.526903 0.0 
1.51013 -2.1595 0.0 
-1.65424 3.45779 0.0 
-1.51397 2.46352 0.0 
1.42773 -2.17867 0.0 
0.304353 0.497878 0.0 
2.24628 0.228293 0.0 
1.51258 -2.27933 0.0 
-1.60346 3.44299 0.0 
-1.71408 2.36227 0.0 
2.17421 0.530405 0.0 
2.42 0.316451 0.0 
-1.63642 3.31911 0.0 
2.53942 -0.995036 0.0 
0.750003 0.810439 0.0 
2.04736 0.40918 0.0 
1.19615 -1.50641 0.0 
2.13474 0.494063 0.0 
0.547924 0.306722 0.0 
-0.2059 0.361394 0.0 
2.2127 0.547693 0.0 
1.41442 -0.597105 0.0 
1.52233 -1.46252 0.0 
-1.84114 2.53924 0.0 
-5 -2.53894 0.0 
2.32127 0.371156 0.0 
-1.69186 3.33379 0.0 
-0.964779 0.566136 0.0 
-1.81311 2.48387 0.0 
-1.78557 3.38304 0.0 
1.48278 0.914136 0.0 
2.51531 -1.89689 0.0 
1.20982 -0.330514 0.0 
0.408434 0.319657 0.0 
0.95023 0.60993 0.0 
-0.752349 0.440796 0.0 
-0.998248 0.564019 0.0 
-1.73165 3.36299 0.0 
1.24353 -1.49063 0.0 
0.942095 0.817189 0.0 
-1.77816 2.47096 0.0 
2.48183 -1.95479 0.0 
1.33574 -1.77854 0.0 
0.823335 1.12085 0.0 
-0.36308 0.598468 0.0 
0.745466 0.783414 0.0 
-1.88344 2.8521 0.0 
-1.79794 3.52221 0.0 
3.0087 0.272815 0.0 
-1.81486 2.66014 0.0 
0.375911 -0.403668 0.0 
-0.68323 0.487288 0.0 
-0.34187 -0.274923 0.0 
-0.293875 -0.201368 0.0 
1.61018 -1.767 0.0 
-0.448275 -0.347267 0.0 
-1.08687 0.352015 0.0 
1.29257 -1.76345 0.0 
1.67658 -1.49551 0.0 
1.19193 0.533009 0.0 
1.21582 -1.91654 0.0 
-0.36438 -0.346225 0.0 
-0.92534 0.330346 0.0 
2.3836 0.287756 0.0 
1.68841 0.639887 0.0 
1.59001 -1.89458 0.0 
1.14818 -1.92143 0.0 
1.28996 -2.19426 0.0 
1.37603 -1.8763 0.0 
1.23834 -2.09141 0.0 
1.11702 -2.06287 0.0 
0.691829 0.463808 0.0 
1.46523 -2.03459 0.0 
-0.123547 0.424486 0.0 
-1.3311 2.12174 0.0 
1.08169 -1.90074 0.0 
1.87975 -2.15971 0.0 
1.10131 -1.78593 0.0 
1.13722 0.534683 0.0 
1.42465 -1.59031 0.0 
-1.45435 2.47344 0.0 
1.41998 -1.98207 0.0 
0.463917 1.8787 0.0 
-1.72896 2.89571 0.0 
1.12419 -1.84975 0.0 
1.59054 -1.20634 0.0 
0.46124 0.621002 0.0 
0.806438 -1.00204 0.0 
2.1804 0.349761 0.0 
2.21142 -1.6418 0.0 
1.10152 -0.274558 0.0 
2.23388 0.387302 0.0 
0.137769 0.567007 0.0 
1.88736 0.267391 0.0 
1.26821 -1.94267 0.0 
0.21033 -0.605707 0.0 
2.61094 -1.50046 0.0 
0.819837 0.743337 0.0 
-1.4303 2.07799 0.0 
1.82013 0.322126 0.0 
-1.47649 2.2099 0.0 
1.15745 -0.274223 0.0 
-1.81198 2.24994 0.0 
2.34337 -1.67775 0.0 
-1.13329 1.37877 0.0 
-0.828215 1.05292 0.0 
2.46752 -1.53452 0.0 
-1.69915 2.18529 0.0 
-0.404416 -0.286271 0.0 
-1.23501 1.31766 0.0 
2.11757 -1.50659 0.0 
-1.08535 1.28274 0.0 
2.58548 -1.70783 0.0 
0.24729 -0.572345 0.0 
-1.66963 2.25319 0.0 
1.58322 -1.62308 0.0 
-0.367923 -0.306026 0.0 
0.391521 1.44485 0.0 
1.88977 -2.46319 0.0 
1.5943 -1.53613 0.0 
-0.357143 -0.23651 0.0 
0.82621 0.80563 0.0 
-1.59261 2.31884 0.0 
-0.47244 -0.307516 0.0 
-0.40334 -0.326688 0.0 
-2.00063 2.11543 0.0 
1.55514 -1.95078 0.0 
-1.40431 2.26352 0.0 
-0.0265928 0.573714 0.0 
1.17093 1.10579 0.0 
-1.77907 2.22111 0.0 
0.682788 0.329642 0.0 
-0.54475 2.15572 0.0 
-0.288592 0.289433 0.0 
-1.43199 2.16349 0.0 
-1.45029 2.25134 0.0 
1.5535 -1.79992 0.0 
-1.06406 1.08381 0.0 
1.72954 1.44966 0.0 
0.582806 0.515814 0.0 
0.582876 -0.679913 0.0 
1.32351 -0.355916 0.0 
-0.47505 0.577092 0.0 
-0.371167 0.227715 0.0 
1.52235 -1.8529 0.0 
-0.429822 -0.244811 0.0 
-0.53237 -0.24648 0.0 
-0.393983 -0.210364 0.0 
0.652895 0.317361 0.0 
1.55812 -1.70765 0.0 
1.63021 0.325622 0.0 
0.442731 0.358729 0.0 
1.22925 -1.85192 0.0 
1.43517 -1.79082 0.0 
1.39317 -1.6984 0.0 
1.62965 0.295952 0.0 
0.905462 0.793465 0.0 
1.04036 -1.64811 0.0 
2.1131 -1.72466 0.0 
-0.743911 0.369492 0.0 
1.14427 -1.99314 0.0 
1.26033 -2.0209 0.0 
-1.70955 2.07308 0.0 
0.910023 -1.62976 0.0 
-0.313059 -0.0954838 0.0 
-1.77334 2.3988 0.0 
-0.311958 -0.24042 0.0 
2.53315 0.325608 0.0 
-0.273728 -0.226719 0.0 
-0.646401 0.379627 0.0 
1.52426 0.616074 0.0 
2.21703 -1.79499 0.0 
2.71108 0.312216 0.0 
0.759924 1.093 0.0 
-1.69271 2.12368 0.0 
0.255794 0.540969 0.0 
0.0534699 0.562158 0.0 
-1.5679 2.22408 0.0 
-1.66906 2.45165 0.0 
-1.51895 2.09449 0.0 
2.16948 0.408238 0.0 
-0.818806 0.680638 0.0 
-0.826868 0.642087 0.0 
0.519855 0.276992 0.0 
-0.716682 1.18602 0.0 
-0.649974 -0.148775 0.0 
0.457368 0.256619 0.0 
0.517407 0.248194 0.0 
0.327129 0.39802 0.0 
0.533249 -0.878832 0.0 
-0.870735 0.634904 0.0 
1.19219 1.07557 0.0 
2.35922 0.366028 0.0 
-1.66911 3.66723 0.0 
-0.857603 1.54934 0.0 
-0.379189 2.30131 0.0 
-0.941007 1.36523 0.0 
-1.58662 2.49682 0.0 
-0.545297 0.352587 0.0 
0.327944 -0.744683 0.0 
-0.312756 0.524741 0.0 
-0.107843 0.506233 0.0 
2.13378 -2.36584 0.0 
1.52689 0.686953 0.0 
-0.119983 0.327909 0.0 
1.02161 -1.53072 0.0 
1.51507 0.39695 0.0 
-0.674484 1.02605 0.0 
-0.564724 -0.148435 0.0 
0.409388 0.290913 0.0 
0.252349 0.30842 0.0 
-1.09282 1.45998 0.0 
1.45674 -1.54484 0.0 
-0.266777 0.782169 0.0 
0.91327 -0.874389 0.0 
1.01208 1.13309 0.0 
-0.897136 1.35063 0.0 
-0.846484 0.489353 0.0 
1.47563 0.663768 0.0 
-1.22282 2.05021 0.0 
0.348906 0.416714 0.0 
1.41913 0.964648 0.0 
0.933289 -0.839038 0.0 
-1.85066 1.40221 0.0 
0.142477 1.99435 0.0 
-0.717809 0.341194 0.0 
-2.21177 1.41584 0.0 
0.396571 0.350929 0.0 
1.25171 -1.60721 0.0 
0.736798 0.393502 0.0 
-0.661427 0.19031 0.0 
2.18751 -2.32769 0.0 
-1.00908 1.6747 0.0 
2.21416 -2.07269 0.0 
-0.779194 0.642011 0.0 
-1.02312 1.3939 0.0 
2.08809 -2.24876 0.0 
-5 -4.48794 0.0 
1.61792 -1.46215 0.0 
-0.974627 1.38947 0.0 
1.81166 -2.48446 0.0 
-1.03635 1.47474 0.0 
0.869004 -1.74424 0.0 
0.956579 -1.78598 0.0 
1.07495 0.540689 0.0 
-1.08005 1.37763 0.0 
0.914755 -0.803058 0.0 
0.611759 -0.305322 0.0 
1.70043 -1.41356 0.0 
0.75708 -0.631542 0.0 
1.21215 1.01979 0.0 
-0.586902 0.440014 0.0 
1.9251 -2.56336 0.0 
-1.58261 1.91091 0.0 
-0.746541 1.26087 0.0 
-1.49915 1.13657 0.0 
-1.46675 0.971536 0.0 
-1.05881 0.930935 0.0 
0.71826 0.415078 0.0 
-0.701697 0.526982 0.0 
-1.56194 2.05157 0.0 
1.15988 0.991244 0.0 
1.38676 0.949615 0.0 
-1.61697 2.02689 0.0 
1.13748 -0.357331 0.0 
-1.8456 2.04561 0.0 
0.253686 -0.756334 0.0 
-1.53603 1.86509 0.0 
-1.43465 0.924137 0.0 
-1.00273 1.27416 0.0 
-1.03063 1.5132 0.0 
-1.32483 1.94769 0.0 
-0.965552 1.61445 0.0 
-0.239859 -0.245939 0.0 
-5 3.01776 0.0 
-5 -0.248741 0.0 
0.517491 1.87079 0.0 
-1.18776 1.8875 0.0 
2.27458 0.36201 0.0 
1.9794 0.331487 0.0 
0.503086 0.510306 0.0 
1.26387 -0.370702 0.0 
1.24483 0.550197 0.0 
1.12871 0.979556 0.0 
-1.48659 1.83259 0.0 
1.0672 0.958366 0.0 
-1.16856 1.61214 0.0 
-0.218637 -0.230696 0.0 
-5 1.81431 0.0 
1.37014 1.04658 0.0 
0.0950623 0.557621 0.0 
-1.23613 1.67303 0.0 
0.953731 -0.709843 0.0 
2.07568 -1.85385 0.0 
2.10836 -1.82014 0.0 
-0.994952 1.33552 0.0 
-1.86986 1.52312 0.0 
0.515812 0.447542 0.0 
0.842446 0.992035 0.0 
-1.42353 1.8223 0.0 
2.091 0.354014 0.0 
-0.937663 0.401428 0.0 
-1.69305 1.41997 0.0 
-1.82465 1.55127 0.0 
2.15192 0.384657 0.0 
-1.17972 1.37998 0.0 
-0.718866 -0.0130647 0.0 
-0.927867 0.290435 0.0 
1.56509 0.300406 0.0 
-5 -3.04052 0.0 
9.98027 -7 0.0 
0.176009 0.694641 0.0 
0.597997 -0.559941 0.0 
-0.546583 0.4849 0.0 
0.602022 -0.657834 0.0 
2.17737 0.379672 0.0 
1.89809 0.287017 0.0 
-1.58883 1.35796 0.0 
-1.2284 1.37063 0.0 
-1.43937 1.35342 0.0 
-1.59664 1.47263 0.0 
0.577431 -0.368705 0.0 
1.5263 -1.51093 0.0 
0.479666 0.796509 0.0 
0.894995 1.01463 0.0 
2.22312 0.363016 0.0 
-0.320562 0.726481 0.0 
-1.30188 2.41386 0.0 
0.43802 0.434693 0.0 
-0.761697 0.762024 0.0 
1.45688 -1.49591 0.0 
-0.65072 0.676835 0.0 
1.6097 -1.41509 0.0 
2.25768 0.399237 0.0 
1.85518 0.299709 0.0 
2.14618 0.290757 0.0 
2.25222 0.371677 0.0 
-1.93063 2.91367 0.0 
1.52717 0.319618 0.0 
1.67964 -1.62237 0.0 
1.35962 -0.439169 0.0 
1.63007 -1.54335 0.0 
-5 -0.764504 0.0 
-1.61377 2.62271 0.0 
1.73865 -1.57725 0.0 
-0.908306 1.23669 0.0 
1.60766 0.330292 0.0 
1.82509 -1.63054 0.0 
1.90521 0.312457 0.0 
1.98719 -1.6488 0.0 
-0.528791 0.39225 0.0 
1.94978 -2.39003 0.0 
-0.472559 0.718465 0.0 
-1.28058 2.26572 0.0 
0.881581 -0.556282 0.0 
2.26369 0.42542 0.0 
0.917309 -1.69962 0.0 
0.853954 -1.60945 0.0 
1.30086 -0.404316 0.0 
1.99565 -2.46852 0.0 
1.49445 -1.47573 0.0 
1.68285 0.863315 0.0 
2.03074 -2.37549 0.0 
2.52279 -0.506167 0.0 
2.56049 -1.76899 0.0 
-1.52889 2.56597 0.0 
2.81136 -0.570221 0.0 
1.3688 -1.46095 0.0 
1.29524 -0.373946 0.0 
-0.350504 0.671928 0.0 
-0.590282 0.564035 0.0 
-0.054366 2.16706 0.0 
1.50819 1.22548 0.0 
-0.548222 0.453941 0.0 
2.19936 -2.5207 0.0 
12.2704 -7 0.0 
1.6811 -1.36761 0.0 
-0.449261 0.559535 0.0 
0.537017 -0.527614 0.0 
-0.00733391 0.553304 0.0 
0.494109 -0.356396 0.0 
-0.7939 0.0827441 0.0 
0.39888 0.467333 0.0 
-1.04288 1.34095 0.0 
0.605019 1.02824 0.0 
0.847559 0.374727 0.0 
1.00336 0.618307 0.0 
2.1955 0.399186 0.0 
0.656973 0.401158 0.0 
-0.998431 2.73564 0.0 
[...]
<PointData>
  <DataArray type = "Float64" Name="VitesseP1" NumberOfComponents="3" format="ascii">
1 0 0.0 
1.08997 0 0.0 
1.03399 0 0.0 
1 0 0.0 
0.994632 0.0154472 0.0 
0.996919 0.0108195 0.0 
0.995506 0.0132733 0.0 
1.04338 -0.00258932 0.0 
1.0452 -0.00366877 0.0 
1.05105 -0.00298106 0.0 
0.997757 0.0117359 0.0 
0.986752 0.0720734 0.0 
0.996613 0.0111442 0.0 
0.996825 0.0119251 0.0 
0.998904 0.0117396 0.0 
0.992649 0.217628 0.0 
1.01986 0.0528329 0.0 
1.05057 -0.0254902 0.0 
0.998831 0.0111675 0.0 
0.995041 0.0141927 0.0 
1.0559 -0.0264756 0.0 
0.998849 0.0130567 0.0 
1.16149 -0.0263381 0.0 
1.04857 0.0134495 0.0 
1.06572 -0.00195726 0.0 
0.998814 0.0126421 0.0 
0.944673 0.00842383 0.0 
1.06459 -0.02162 0.0 
0.0635476 -0.00230345 0.0 
0.98885 0.0309443 0.0 
1.14277 0.066753 0.0 
1.11031 0.141397 0.0 
0.998841 0.0120756 0.0 
1.03491 -0.0168501 0.0 
0.94152 0.0120058 0.0 
1.00539 0.0298493 0.0 
0.937126 -0.0515022 0.0 
1.08666 -0.00191866 0.0 
1.05902 0.00882129 0.0 
1.05592 -0.0154686 0.0 
1.05912 -0.00482886 0.0 
0.927166 0.151185 0.0 
1.07694 -0.0111453 0.0 
1.12827 0.00123681 0.0 
1.07043 0.00775403 0.0 
1.06534 -0.0134189 0.0 
1.06734 0.0357187 0.0 
1.06091 0.0246264 0.0 
1.19953 0.0258786 0.0 
0.939686 0.035298 0.0 
1.04215 -0.002583 0.0 
1.00244 0.0119783 0.0 
0.9998 0.0171569 0.0 
1.04152 -0.00421184 0.0 
1.03814 0.242609 0.0 
0.0325492 0.00959407 0.0 
1.04507 -0.00149964 0.0 
1.00266 0.0123666 0.0 
0.999076 0.0152868 0.0 
1.16524 -0.00494817 0.0 
0.150547 -0.00435059 0.0 
1.00234 0.0126371 0.0 
1.1001 0.0574687 0.0 
1.12318 0.119842 0.0 
0.568291 -0.000841707 0.0 
1.06205 -0.0264507 0.0 
1.0744 -0.00342005 0.0 
0.558123 0.134518 0.0 
0.863003 0.0851082 0.0 
1.18571 -0.00912086 0.0 
1.20331 -0.038011 0.0 
1.0687 -0.0109381 0.0 
0.999028 0.0137652 0.0 
1 0 0.0 
0.305589 -0.0158275 0.0 
1.00211 0.0122285 0.0 
0.968201 0.010304 0.0 
0.99905 0.0141181 0.0 
1.00173 0.0114362 0.0 
1.17382 0.03399 0.0 
1.04011 0.0272733 0.0 
0.753903 -0.0409723 0.0 
0.94959 0.262704 0.0 
1.17371 0.11406 0.0 
0.946302 0.013949 0.0 
0.970011 0.00860374 0.0 
1.00201 0.0118538 0.0 
1.06347 -0.0246601 0.0 
1.14388 0.0964314 0.0 
0.999115 0.0144625 0.0 
1.04629 0.0314422 0.0 
1.0436 -0.0137139 0.0 
1.09695 0.0786112 0.0 
0.935678 0.0696634 0.0 
1.12553 0.123986 0.0 
0.999858 0.0125617 0.0 
1.00212 0.0106799 0.0 
0.020641 -0.152308 0.0 
0.999218 0.013694 0.0 
1.19201 -0.234672 0.0 
0.9442 0.022701 0.0 
0.919098 -0.0885828 0.0 
0.915874 -0.0747239 0.0 
1.04824 -0.00301981 0.0 
0.92472 -0.0784611 0.0 
0.967276 -0.00839806 0.0 
1.04325 -0.0157086 0.0 
1.07066 -0.00223735 0.0 
1.19701 0.0818386 0.0 
1.03877 -0.0151793 0.0 
0.92045 -0.0888147 0.0 
0.954987 -0.00390589 0.0 
0.0922563 0.00476207 0.0 
1.20288 0.0325661 0.0 
1.04513 -0.00273859 0.0 
1.03715 -0.0170535 0.0 
1.03903 -0.00688828 0.0 
1.04275 -0.0105173 0.0 
1.03634 -0.0108295 0.0 
1.03328 -0.0159196 0.0 
1.16447 0.183362 0.0 
1.04022 -0.00522806 0.0 
0.877557 0.125636 0.0 
0.999071 0.0206144 0.0 
1.03598 -0.0196544 0.0 
1.04236 0.00673895 0.0 
1.03826 -0.0221043 0.0 
1.19652 0.0894184 0.0 
1.06233 -0.0137991 0.0 
1.00005 0.0177739 0.0 
1.04021 -0.00738919 0.0 
1.02961 0.0461405 0.0 
1.00071 0.0135819 0.0 
1.03787 -0.0197 0.0 
1.06058 -0.0104621 0.0 
1.08795 0.188435 0.0 
1.06944 -0.0731664 0.0 
0.163946 -0.000801414 0.0 
1.05691 0.0247027 0.0 
0.45724 -0.039559 0.0 
0.400742 -0.0124959 0.0 
0.978018 0.196053 0.0 
0.0684849 -0.00728032 0.0 
1.03886 -0.012953 0.0 
1.0314 -0.160659 0.0 
1.05658 0.053051 0.0 
1.13977 0.119738 0.0 
0.998776 0.0192394 0.0 
0.0800915 0.00312628 0.0 
0.998947 0.0183212 0.0 
0.410288 -0.0172655 0.0 
0.99876 0.0143869 0.0 
1.04894 0.0299902 0.0 
0.985257 0.0242307 0.0 
0.973546 0.0340248 0.0 
1.06059 0.0410481 0.0 
0.998592 0.0156249 0.0 
0.923087 -0.0797169 0.0 
0.984259 0.0206671 0.0 
1.07012 0.0218202 0.0 
0.981704 0.0250905 0.0 
1.03675 0.0381688 0.0 
1.04074 -0.171179 0.0 
0.998876 0.0159117 0.0 
1.06026 -0.00572154 0.0 
0.920525 -0.0860892 0.0 
1.03456 0.06886 0.0 
1.04917 -0.000200211 0.0 
1.0691 -0.00619407 0.0 
0.916731 -0.0819114 0.0 
1.13313 0.11161 0.0 
0.999189 0.0166844 0.0 
0.927972 -0.0729065 0.0 
0.922563 -0.0827799 0.0 
0.998623 0.0124641 0.0 
1.04276 -0.00348422 0.0 
0.999441 0.019138 0.0 
0.939237 0.151121 0.0 
1.13056 0.0482149 0.0 
0.998702 0.0147414 0.0 
0.635302 0.110426 0.0 
1.00605 0.0339025 0.0 
0.86356 0.0450895 0.0 
0.998904 0.0190325 0.0 
0.999247 0.0185636 0.0 
1.04642 -0.00499575 0.0 
0.974081 0.0236076 0.0 
1.07119 -0.0380594 0.0 
1.14188 0.198977 0.0 
1.1097 -0.129005 0.0 
0.872519 -0.0310921 0.0 
0.938366 0.0515207 0.0 
0.875236 0.0160691 0.0 
1.04526 -0.00562171 0.0 
0.924312 -0.0732884 0.0 
0.933414 -0.0627695 0.0 
0.919033 -0.0744464 0.0 
0.582622 0.110715 0.0 
1.05149 -0.00587765 0.0 
0.115452 0.0164079 0.0 
1.03785 0.264529 0.0 
1.0403 -0.0161206 0.0 
1.04511 -0.00974327 0.0 
1.04984 -0.0131311 0.0 
0.0941599 0.0250207 0.0 
1.1431 0.103139 0.0 
1.04461 -0.0284155 0.0 
1.04982 0.0188992 0.0 
0.941572 0.00826019 0.0 
1.03463 -0.0158884 0.0 
1.03675 -0.0115719 0.0 
0.998722 0.0155085 0.0 
1.04167 -0.0337472 0.0 
0.898796 -0.0657546 0.0 
0.999043 0.0146307 0.0 
0.909979 -0.0859364 0.0 
0.214014 -0.0169685 0.0 
0.888104 -0.0841394 0.0 
0.932776 0.015765 0.0 
1.20132 0.0446644 0.0 
1.04576 0.0226879 0.0 
0.282621 -0.0400022 0.0 
1.09639 0.08623 0.0 
0.998542 0.0157089 0.0 
1.01939 0.222526 0.0 
0.951826 0.17684 0.0 
0.998878 0.0171415 0.0 
0.999322 0.015562 0.0 
0.998741 0.0179558 0.0 
0.559847 -0.00759967 0.0 
0.967763 0.0247485 0.0 
0.96547 0.0222624 0.0 
0.41481 0.135608 0.0 
0.976662 0.0404329 0.0 
0.940352 -0.0446358 0.0 
0.301786 0.101414 0.0 
0.375329 0.18428 0.0 
1.06376 0.296374 0.0 
1.06979 -0.102776 0.0 
0.967227 0.0191879 0.0 
1.1382 0.048462 0.0 
0.295953 -0.0140658 0.0 
1.00073 0.0112599 0.0 
0.990457 0.0332466 0.0 
1.00952 0.0343038 0.0 
0.983891 0.0306511 0.0 
0.99963 0.0162815 0.0 
0.918917 0.0210125 0.0 
1.05934 -0.131461 0.0 
0.919176 0.0752729 0.0 
0.908968 0.131576 0.0 
1.04772 0.0157176 0.0 
1.19268 0.0418133 0.0 
0.830136 0.116384 0.0 
1.05636 -0.0332918 0.0 
0.566807 0.0210349 0.0 
0.97585 0.0430741 0.0 
0.932756 -0.0505279 0.0 
0.702803 0.194511 0.0 
0.899594 0.338677 0.0 
0.987358 0.0258733 0.0 
1.06672 -0.0129325 0.0 
0.967441 0.0857834 0.0 
1.11386 -0.0765975 0.0 
1.11129 0.0614159 0.0 
0.983278 0.0322939 0.0 
0.956388 0.0117686 0.0 
1.19329 0.0469812 0.0 
0.99917 0.0226062 0.0 
1.078 0.283383 0.0 
1.16673 0.0356388 0.0 
1.12435 -0.077633 0.0 
0.994108 0.0098371 0.0 
1.01825 0.0445432 0.0 
0.937593 0.00715193 0.0 
0.997234 0.0081896 0.0 
1.0189 0.283853 0.0 
1.0559 -0.0210864 0.0 
1.00181 0.150917 0.0 
0.9253 -0.00690093 0.0 
1.037 0.0355977 0.0 
0.992874 0.0283034 0.0 
1.03857 0.0196535 0.0 
0.962893 0.025443 0.0 
0.985103 0.0278662 0.0 
1.03775 0.00994279 0.0 
1 0 0.0 
1.06994 -0.00571009 0.0 
0.984832 0.0295046 0.0 
1.04743 0.000532076 0.0 
0.987654 0.0276445 0.0 
1.0321 -0.0308147 0.0 
1.03433 -0.0268858 0.0 
1.19373 0.0986364 0.0 
0.984893 0.0259084 0.0 
1.13002 -0.0822553 0.0 
0.913842 -0.146842 0.0 
1.06862 -0.00156993 0.0 
1.1285 -0.114854 0.0 
1.147 0.0508356 0.0 
0.931501 0.0269921 0.0 
1.03783 0.00261575 0.0 
0.995969 0.0168871 0.0 
0.979895 0.0387881 0.0 
0.984121 0.0108369 0.0 
0.995501 0.0100831 0.0 
0.990071 0.0209477 0.0 
1.09076 0.167627 0.0 
0.948724 0.0242396 0.0 
0.998712 0.0173379 0.0 
1.14575 0.058288 0.0 
1.16541 0.0394029 0.0 
0.99846 0.0165921 0.0 
0.932333 -0.0575161 0.0 
0.999079 0.0139107 0.0 
1.04344 -0.128217 0.0 
0.995072 0.0174764 0.0 
1.0002 0.0107327 0.0 
0.980851 0.0279631 0.0 
0.9889 0.0278803 0.0 
0.99661 0.0210228 0.0 
0.991959 0.0296887 0.0 
0.88248 -0.10594 0.0 
1 0 0.0 
1 0 0.0 
1.03154 0.0454603 0.0 
0.995298 0.0236474 0.0 
0.244903 -0.0113952 0.0 
0.0611905 0.00907169 0.0 
1.11744 0.216306 0.0 
0.961226 -0.045728 0.0 
1.20111 0.0754158 0.0 
1.14435 0.0623794 0.0 
0.994505 0.0181783 0.0 
1.14126 0.0704198 0.0 
0.991866 0.024204 0.0 
0.948609 -0.164338 0.0 
1 0 0.0 
1.1569 0.0333653 0.0 
0.962149 0.189435 0.0 
0.992805 0.0227215 0.0 
1.14464 -0.0852898 0.0 
1.04556 0.0161422 0.0 
1.04601 0.0178779 0.0 
0.982964 0.0286139 0.0 
0.995369 0.0110741 0.0 
1.12904 0.231587 0.0 
1.11859 0.0899557 0.0 
0.994258 0.0192208 0.0 
0.165067 -0.00343362 0.0 
0.958634 0.000877873 0.0 
0.992141 0.0118643 0.0 
0.995296 0.0117812 0.0 
0.374732 -0.00575697 0.0 
0.985601 0.0228505 0.0 
0.948653 -0.0295686 0.0 
0.95379 -0.0071133 0.0 
0.0978905 -0.0110951 0.0 
1 0 0.0 
1.06881 0 0.0 
1.00825 0.165531 0.0 
1.12057 -0.146242 0.0 
0.932253 0.03546 0.0 
1.11363 -0.130315 0.0 
0.337342 -0.00701524 0.0 
0.0783665 -0.00462276 0.0 
0.989695 0.0125876 0.0 
0.985733 0.0213763 0.0 
0.987505 0.0157061 0.0 
0.991704 0.0140072 0.0 
1.10904 -0.17366 0.0 
1.06877 -0.00997618 0.0 
1.08021 0.146268 0.0 
1.12149 0.0828762 0.0 
0.238708 -0.00785566 0.0 
0.956972 0.078677 0.0 
1.00056 0.0198295 0.0 
1.11191 0.256531 0.0 
0.972402 0.0321399 0.0 
1.0679 -0.0138998 0.0 
0.959484 0.0374599 0.0 
1.06795 -0.00676078 0.0 
0.492803 -0.014796 0.0 
0.0788214 0.00610607 0.0 
0.0588099 0.0149243 0.0 
0.295217 -0.0114405 0.0 
0.999815 0.0120025 0.0 
0.0842695 0.00101109 0.0 
1.06108 -0.00116303 0.0 
1.16187 -0.0430664 0.0 
1.06913 -0.00430641 0.0 
1 0 0.0 
0.999752 0.0155911 0.0 
1.06725 0.00157206 0.0 
0.979248 0.0315308 0.0 
0.103144 0.00704447 0.0 
1.06101 0.00594205 0.0 
0.0761123 -0.0023046 0.0 
1.05853 0.0137301 0.0 
0.920603 0.0276769 0.0 
1.04368 0.00158948 0.0 
0.957582 0.0578238 0.0 
0.999925 0.0208168 0.0 
1.19615 -0.110177 0.0 
0.690224 -0.0157835 0.0 
1.03626 -0.0308252 0.0 
1.04215 -0.0363552 0.0 
1.07051 -0.0449621 0.0 
1.0566 0.010988 0.0 
1.06852 -0.0122539 0.0 
1.18803 0.0199326 0.0 
1.04299 0.0156782 0.0 
1.24557 0.0810298 0.0 
1.03806 0.0335738 0.0 
0.999955 0.0166256 0.0 
1.17376 0.103586 0.0 
1.06586 -0.0191252 0.0 
0.974249 -0.0458804 0.0 
0.94804 0.073662 0.0 
0.94445 0.0369516 0.0 
1.01417 0.0409718 0.0 
1.13358 -0.00198635 0.0 
0.929161 0.0323188 0.0 
1.00648 -0.00604248 0.0 
1.06644 0 0.0 
1.0652 -0.00301468 0.0 
0.934101 0.0540073 0.0 
1.14018 -0.163818 0.0 
0.936042 0.160093 0.0 
1.10348 -0.19513 0.0 
0.952729 -0.0203306 0.0 
1.08821 0.250388 0.0 
0.983425 0.0269289 0.0 
1.08781 0.103835 0.0 
0.792016 0.101017 0.0 
1.17629 0.105123 0.0 
0.491138 -0.00985088 0.0 
1.07721 0.185828 0.0 
1.00402 0.020868 0.0 
1.05839 0.0166723 0.0 
1.04437 0.0102219 0.0 
1.04887 3.89999e-05 0.0 
1.04743 0.00121152 0.0 
0.0772848 0.0118111 0.0 
1.04317 0.00330614 0.0 
-0.0377544 0.026607 0.0 
1.0677 -0.041078 0.0 
1.00414 0.0343824 0.0 
1.04606 0.0108343 0.0 
1 0 0.0 
0.983406 0.0257727 0.0 
1.19427 0.0944952 0.0 
0.776687 -0.0388782 0.0 
0.999605 0.0150394 0.0 
0.991975 0.0383817 0.0 
1.05162 0.0114334 0.0 
1.05632 0.00631188 0.0 
0.940275 0.188769 0.0 
0.782712 0.130268 0.0 
1.00436 0.0179421 0.0 
1.14386 0.128527 0.0 
1.00034 0.243014 0.0 
0.999117 0.0117165 0.0 
0.986086 0.0286847 0.0 
1.05261 0.00213006 0.0 
0.938227 0.124323 0.0 
0.180933 0.0120861 0.0 
1.05167 0.00435094 0.0 
0.174172 0.0989356 0.0 
1.05175 -5.52582e-06 0.0 
1.02629 -0.0160239 0.0 
1.01638 0.0461123 0.0 
1.12632 -0.0477406 0.0 
1.0484 0.00335263 0.0 
0.957276 -0.00650787 0.0 
0.351958 0.0126668 0.0 
1.06438 -0.0224777 0.0 
0.946846 -0.00171445 0.0 
0.999809 0.0147338 0.0 
1.06185 -0.0274694 0.0 
0.942077 0.0653818 0.0 
1.19828 -0.0455688 0.0 
0.274317 -0.0160155 0.0 
0.618402 -0.019465 0.0 
0.941375 -0.00489065 0.0 
0.965058 0.272135 0.0 
0.252076 0.0477402 0.0 
0.997429 0.315715 0.0 
0.949619 -0.0097967 0.0 
1.08012 -0.0430403 0.0 
0.721128 -0.00307072 0.0 
0.358044 0.116258 0.0 
1.10269 0.0693413 0.0 
0.998714 0.0118237 0.0 
0.574698 -0.00212107 0.0 
0.163188 0.0339592 0.0 
0.914748 -0.0436383 0.0 
0.774446 -0.0250097 0.0 
1.03565 0.0507467 0.0 
0.998786 0.011423 0.0 
1.02698 -0.0979312 0.0 
1.11686 -0.0347197 0.0 
1.17422 0.0226936 0.0 
0.0785628 -0.00083566 0.0 
0.936643 -0.0578286 0.0 
1.03503 0.0457224 0.0 
1.06881 -0.00789126 0.0 
0.938359 -0.00927362 0.0 
0.0727874 0.0027372 0.0 
0.99881 0.0123343 0.0 
1.17294 0.0275165 0.0 
1.06016 -0.0266465 0.0 
0.96425 0.215828 0.0 
1.05422 0.0202604 0.0 
1.07058 0.000518287 0.0 
1.07084 0.00537031 0.0 
0.954745 0.0372295 0.0 
1.06218 -0.0244098 0.0 
0.998937 0.0134996 0.0 
0.952461 0.00675923 0.0 
1.14066 -0.033732 0.0 
1.05806 0.0202391 0.0 
0.989423 0.0069979 0.0 
0.953634 0.0150092 0.0 
0.998977 0.0136822 0.0 
1.06088 0.00517765 0.0 
1.04286 -0.00406267 0.0 
1.06203 -0.0216151 0.0 
0.990584 0.00863478 0.0 
1.02545 0.0517777 0.0 
0.998888 0.0129476 0.0 
1.0458 -0.0261782 0.0 
1.06883 0.019732 0.0 
0.0514083 0.0142482 0.0 
0.0553963 0.00985864 0.0 
1.07161 0.0158135 0.0 
0.905627 -0.0566778 0.0 
0.890823 -0.0482273 0.0 
0.882223 0.119997 0.0 
0.999422 0.0136152 0.0 
0.99887 0.0136028 0.0 
0.963048 -0.0134566 0.0 
0.965188 -0.00227471 0.0 
1.03696 0.030017 0.0 
0.964242 0.234715 0.0 
1.06771 0.151622 0.0 
1.03071 -0.0441627 0.0 
0.0632823 -0.00314255 0.0 
1.16126 0.0229583 0.0 
1.08224 0.147291 0.0 
0.998726 0.013129 0.0 
1.01816 0.0401831 0.0 
1.11227 -0.00793566 0.0 
0.982924 0.0206006 0.0 
0.934764 0.046142 0.0 
1.03131 -0.0287953 0.0 
0.973522 0.0370193 0.0 
0.941545 0.108714 0.0 
0.934445 0.0586609 0.0 
0.820161 -0.0366508 0.0 
0.96307 0.00680414 0.0 
0.790423 -0.0484361 0.0 
1.00103 0.0177611 0.0 
1.03137 0.0420002 0.0 
0.95407 -0.0104908 0.0 
0.96178 -0.0013219 0.0 
0.922912 0.0339391 0.0 
1.10169 0.248757 0.0 
0.972494 0.00576033 0.0 
0.943012 0.291709 0.0 
0.945645 0.0324836 0.0 
0.97569 0.226228 0.0 
0.850539 0.285944 0.0 
0.995241 0.00721954 0.0 
1.00074 0 0.0 
0.99883 0.0118063 0.0 
0.977418 0.0012291 0.0 
0.89571 0.153779 0.0 
0.134088 0.00838793 0.0 
1.01079 0.0425616 0.0 
0.980889 0.00682303 0.0 
0.999403 0.0121967 0.0 
0.916098 -0.0720828 0.0 
0.916937 0.0327393 0.0 
1.19844 -0.0343194 0.0 
0.998719 0.0120749 0.0 
0.962546 0.0748237 0.0 
0.756949 -0.0765346 0.0 
1.03419 -0.0227787 0.0 
0.936505 0.0633902 0.0 
0.995336 0.0158458 0.0 
0.944679 0.0272488 0.0 
0.991144 0.019655 0.0 
0.0797259 0.0106092 0.0 
0.749372 -0.0664922 0.0 
1.04476 -0.00177423 0.0 
1.15527 0.0801896 0.0 
1.1461 -0.0282455 0.0 
0.997718 0.0103812 0.0 
0.982319 0.0182335 0.0 
1.00523 0.201999 0.0 
1.11482 0.157456 0.0 
0.584527 0.0954483 0.0 
0.951587 0.188944 0.0 
0.981698 0.018602 0.0 
0.295403 -0.0254025 0.0 
0.982703 0.0215021 0.0 
0.997322 0.012415 0.0 
1.00036 0.0192029 0.0 
0.243747 -0.0202682 0.0 
0.201208 -0.0120381 0.0 
0.981932 0.0297155 0.0 
0.339184 0.0580397 0.0 
1.19306 0.0902813 0.0 
1.01002 0.0420692 0.0 
0.981105 0.0319691 0.0 
0.999724 0.0191123 0.0 
0.978056 0.0109065 0.0 
0.930615 0.0684516 0.0 
0.976732 0.0254076 0.0 
0.852488 0.285049 0.0 
0.4794 -0.0310405 0.0 
0.224139 -0.0114662 0.0 
0.96837 0.0132002 0.0 
0.974944 0.0118172 0.0 
1.0549 0.204526 0.0 
0.304693 -0.0263284 0.0 
0.940131 0.0207203 0.0 
1.03451 -0.0384512 0.0 
0.983547 0.245688 0.0 
0.999272 0.0132601 0.0 
0.922881 0.0815844 0.0 
0.972568 0.0306462 0.0 
0.930548 0.143109 0.0 
0.960483 0.156306 0.0 
1.00939 0.255096 0.0 
0.712015 -0.0280528 0.0 
0.937626 -0.0525771 0.0 
1.1193 0.0566384 0.0 
0.470012 0.0936279 0.0 
0.926746 -0.0598955 0.0 
0.115328 0.00335905 0.0 
0.899316 -0.0130997 0.0 
0.750157 0.135962 0.0 
0.915433 -0.0666594 0.0 
0.922499 -0.0563858 0.0 
0.615672 0.165198 0.0 
1.04826 0.00854533 0.0 
0.941338 0.173233 0.0 
0.879983 -0.00514824 0.0 
0.928625 -0.0539681 0.0 
1.04155 -0.00436745 0.0 
0.341428 0.0415039 0.0 
1.03835 -0.00772779 0.0 
0.866436 0.00718462 0.0 
0.898384 0.217292 0.0 
1.0506 0.000252181 0.0 
0.90702 -0.0883347 0.0 
0.922565 0.182857 0.0 
0.287319 -0.0273466 0.0 
1.1324 0.0593528 0.0 
1.03544 0.170195 0.0 
0.831701 0.380912 0.0 
1.10269 0.164715 0.0 
1.06471 0.259735 0.0 
0.955208 -0.0386289 0.0 
0.719023 -0.0921385 0.0 
0.977839 0.03299 0.0 
0.523763 0.0618789 0.0 
0.918719 -0.0528835 0.0 
1.05607 0.0712138 0.0 
0.181663 -0.00617552 0.0 
1.04444 0.263544 0.0 
1.06348 0.0432325 0.0 
0.879401 0.105115 0.0 
1.00506 0.0213743 0.0 
0.893122 0.0667475 0.0 
0.13768 0.00229329 0.0 
0.853685 0.0762343 0.0 
0.94967 0.0365873 0.0 
0.947577 0.00361861 0.0 
1.17469 -0.0393584 0.0 
0.764 0.335353 0.0 
0.848049 0.088959 0.0 
1.02912 0.0722425 0.0 
1.08294 -0.0954545 0.0 
0.921354 -0.0471192 0.0 
1.04046 0.271796 0.0 
0.964909 0.0165935 0.0 
0.99585 0.0397174 0.0 
0.910618 0.0768032 0.0 
0.924959 0.11244 0.0 
0.911014 0.0351911 0.0 
1.00901 0.0268939 0.0 
0.920192 0.105753 0.0 
0.917867 0.220737 0.0 
0.999201 0.0123651 0.0 
1.0929 -0.0710064 0.0 
0.303237 -0.0303117 0.0 
1.05436 0.251091 0.0 
0.966623 0.202904 0.0 
0.807553 0.151123 0.0 
0.827315 0.0380169 0.0 
0.886655 0.029625 0.0 
1.04264 0.305141 0.0 
0.999589 0.0169798 0.0 
1.12537 0.139782 0.0 
1.03361 0.226307 0.0 
0.886624 -0.0485509 0.0 
0.92323 -0.00217139 0.0 
0.858795 0.158282 0.0 
0.911285 0.0204235 0.0 
0.885532 0.0146346 0.0 
0.93262 -0.0462961 0.0 
0.934616 0.20713 0.0 
0.995771 0.0298439 0.0 
0.999584 0.0145099 0.0 
0.114175 0.0049358 0.0 
0.100347 0.00730461 0.0 
0.913238 0.0275334 0.0 
0.527384 0.153706 0.0 
1.03961 -0.00619125 0.0 
0.921951 -0.0166144 0.0 
0.978121 -0.00125469 0.0 
0.902982 0.0762795 0.0 
0.842211 0.00649537 0.0 
1.08291 -0.0673939 0.0 
0.955274 0.00771491 0.0 
0.975651 0.00882507 0.0 
1.08473 0.267637 0.0 
0.225222 -0.0139075 0.0 
0.931091 0.300178 0.0 
0.973149 0.00236417 0.0 
0.989175 0.0536171 0.0 
1.06955 -0.229526 0.0 
0.96914 0.00440889 0.0 
0.961902 0.0122843 0.0 
0.997726 0.0129653 0.0 
1.03884 -0.00747525 0.0 
0.799293 0.108448 0.0 
0.904807 0.0181659 0.0 
0.990981 0.00513316 0.0 
1.02918 -0.182934 0.0 
0.995212 0.0151312 0.0 
0.935764 0.0238625 0.0 
0.811999 0.168191 0.0 
0.950268 -0.00874452 0.0 
0.998123 0.00987111 0.0 
0.939022 0.00446881 0.0 
0.188689 0.128335 0.0 
0.944129 -0.00865116 0.0 
1.06681 -0.00928285 0.0 
0.954412 0.288615 0.0 
0.0696435 0.00779047 0.0 
1.10192 0.254936 0.0 
0.988056 0.0145864 0.0 
0.918131 -0.12732 0.0 
0.969037 0.00157664 0.0 
0.959827 0.00887786 0.0 
0.960081 0.00427955 0.0 
0.544504 0.134939 0.0 
0.962116 0.00159879 0.0 
0.95625 -0.0138205 0.0 
0.653181 0.184242 0.0 
1.03537 -0.0113009 0.0 
1.03485 0.0444005 0.0 
0.997668 0.265871 0.0 
0.981152 0.0205101 0.0 
0.97565 0.0286872 0.0 
0.964868 0.00367237 0.0 
0.893826 0.0126921 0.0 
0.959193 -0.01811 0.0 
0.118486 0.000400445 0.0 
0.968901 -0.000486755 0.0 
1.0632 0.0172737 0.0 
0.876662 0.167849 0.0 
0.996499 0.0117668 0.0 
1.06917 0.0287272 0.0 
1.05801 0.0945894 0.0 
1.10326 -0.0711441 0.0 
1.09705 0.104537 0.0 
0.976689 -0.00321736 0.0 
0.877324 0.182813 0.0 
0.99666 0.0141605 0.0 
0.996968 0.0108505 0.0 
0.890138 -0.0414299 0.0 
0.978856 0.0254605 0.0 
1.1647 -0.227256 0.0 
0.672106 0.0132953 0.0 
0.942308 0.0412787 0.0 
1.01799 0.302541 0.0 
0.908806 0.353211 0.0 
0.839548 0.131909 0.0 
1.16022 0.0750142 0.0 
0.153967 0.133964 0.0 
1.01892 0.289498 0.0 
1.06707 0.265727 0.0 
1.04054 -0.00455274 0.0 
0.939205 0.0939212 0.0 
0.047881 0.00623462 0.0 
1.17676 0.147036 0.0 
0.977987 0.0315282 0.0 
0.910453 0.121787 0.0 
1.12748 0.219622 0.0 
0.851892 0.124081 0.0 
-0.0413761 -0.0179226 0.0 
0.979067 0.0296626 0.0 
0.925488 0.0733336 0.0 
0.746757 0.140435 0.0 
0.979891 0.0264154 0.0 
0.912266 0.149879 0.0 
0.995905 0.0122409 0.0 
0.903565 0.101204 0.0 
0.979388 0.0275825 0.0 
0.854399 0.0554007 0.0 
0.83147 0.0222557 0.0 
0.904753 0.163963 0.0 
0.998773 0.0111099 0.0 
0.969114 -0.00495222 0.0 
0.980345 0.0247624 0.0 
0.999115 0.0172577 0.0 
0.96299 -0.00498368 0.0 
0.961975 -0.0086501 0.0 
0.966428 -0.0044407 0.0 
0.938587 -0.0416744 0.0 
0.926243 0.0578288 0.0 
0.926884 0.0878041 0.0 
1.04277 0.000161325 0.0 
0.989892 0.031625 0.0 
1.06815 0.0296406 0.0 
0.999212 0.0141864 0.0 
1.08012 -0.00666429 0.0 
1.00575 0.0793685 0.0 
0.949982 0.0130227 0.0 
0.977123 0.0267671 0.0 
1.05082 -0.161207 0.0 
1.1022 0.242875 0.0 
1.12521 0.231074 0.0 
0.933652 -0.0324301 0.0 
0.999105 0.0137203 0.0 
0.951471 0.0106789 0.0 
0.996406 0.0133166 0.0 
0.979683 0.00510282 0.0 
1.05824 0.0103757 0.0 
1.04967 -0.171937 0.0 