<VTKFile type="UnstructuredGrid" version="0.1" byte_order="LittleEndian">
  <UnstructuredGrid>
    <Piece NumberOfPoints="23363" NumberOfCells="46608">
      <Points>
        <DataArray type = "Float64" NumberOfComponents="3" format="ascii">
-5 -7 0.0 
15.5 -7 0.0 
15.5 7 0.0 
-5 7 0.0 
3.18355 0.169963 0.0 
0.744743 -0.0245507 0.0 
-0.710082 0.3737 0.0 
3.54957 0.925901 0.0 
0.673904 -0.460293 0.0 
0.00357444 0.0170209 0.0 
4.31989 -1.69487 0.0 
2.39705 2.2728 0.0 
-0.895939 -2.86691 0.0 
2.40837 0.46912 0.0 
4.59058 -0.621464 0.0 
2.55179 1.01725 0.0 
4.61399 0.0713575 0.0 
4.24135 -0.223975 0.0 
0.120658 -0.0372114 0.0 
1.53551 -0.916129 0.0 
0.901939 2.91828 0.0 
-0.612495 -0.236684 0.0 
4.99259 -4.54755 0.0 
0.780345 -0.0266691 0.0 
3.45113 0.173009 0.0 
2.42109 -0.214438 0.0 
5.19146 0.585715 0.0 
0.566652 0.0897206 0.0 
-2.04169 2.27506 0.0 
8.37805 0.0277781 0.0 
1.55666 1.53218 0.0 
4.54256 4.34305 0.0 
0.307839 -3.51724 0.0 
2.19809 0.543599 0.0 
0.107351 0.924395 0.0 
-0.60249 0.408637 0.0 
0.162666 0.101807 0.0 
0.818564 0.0186712 0.0 
2.11482 0.243429 0.0 
7.28044 -0.676414 0.0 
4.75694 -0.287149 0.0 
3.18769 0.747325 0.0 
-0.554592 0.912013 0.0 
0.329707 -1.13269 0.0 
6.64097 1.71952 0.0 
2.24937 0.909197 0.0 
0.952447 -0.00545261 0.0 
0.704537 -1.22188 0.0 
-3.0161 0.308062 0.0 
2.83064 -0.121165 0.0 
4.58296 0.80603 0.0 
0.342706 -0.0445613 0.0 
3.53841 -4.17652 0.0 
4.09726 0.29417 0.0 
-2.78976 -0.608246 0.0 
0.245902 0.0445196 0.0 
0.98182 -0.00234488 0.0 
0.312588 -0.045315 0.0 
0.162793 0.0714252 0.0 
-1.16192 2.59577 0.0 
0.947784 -0.00635413 0.0 
15.5 5.74627 0.0 
0.905726 -0.012091 0.0 
2.59426 -1.05095 0.0 
0.913668 0.886882 0.0 
0.373201 0.0634108 0.0 
1.84164 -0.788891 0.0 
0.817571 -0.0182051 0.0 
1.31668 0.686478 0.0 
1.9638 0.17137 0.0 
-2.49719 3.29173 0.0 
-0.334695 -0.59899 0.0 
-1.06701 4.99404 0.0 
0.104646 -0.0359396 0.0 
2.85582 -1.29091 0.0 
-2.46645 1.8403 0.0 
-4.4386 0.211068 0.0 
-0.117446 0.782219 0.0 
6.95684 -2.1689 0.0 
-0.727497 -1.11308 0.0 
5.32983 -2.66539 0.0 
-0.735268 0.973456 0.0 
-2.24077 0.751408 0.0 
4.69545 -1.4105 0.0 
5.2637 0.829009 0.0 
0.474289 0.0410955 0.0 
4.18635 0.578246 0.0 
0.881069 0.019758 0.0 
4.22485 0.361379 0.0 
1.74304 -1.16672 0.0 
-1.99337 -6.54339 0.0 
-0.897961 -1.21087 0.0 
6.03814 0.519242 0.0 
4.46587 -0.160323 0.0 
3.42216 0.888527 0.0 
3.00792 -0.733911 0.0 
0.431538 -0.0463053 0.0 
1.95618 -0.900845 0.0 
0.813531 0.01865 0.0 
1.7464 -0.313211 0.0 
1.02723 -0.0221506 0.0 
0.154229 -0.210612 0.0 
4.95981 1.28089 0.0 
3.29459 1.04115 0.0 
1.20256 -1.51503 0.0 
0.611521 -0.0348414 0.0 
1.6323 0.444164 0.0 
0.105602 -0.0356587 0.0 
2.37201 0.562293 0.0 
5.72095 0.794109 0.0 
0.434749 -0.0654113 0.0 
0.404053 -0.0510612 0.0 
3.87079 -0.00723506 0.0 
0.920555 -0.00873148 0.0 
0.611398 -0.0418877 0.0 
6.54424 2.96551 0.0 
0.298395 0.045412 0.0 
0.381016 -0.139498 0.0 
-0.0127712 -0.363675 0.0 
-1.11211 0.450976 0.0 
5.70107 0.103025 0.0 
2.56821 1.18202 0.0 
1.94198 0.759367 0.0 
-0.767916 -1.36647 0.0 
6.26558 3.27619 0.0 
0.393758 0.0433312 0.0 
1.03918 -3.7326 0.0 
2.98196 -2.19664 0.0 
-0.723337 0.659752 0.0 
0.769751 0.0257312 0.0 
-0.0432695 -0.11786 0.0 
1.77324 0.00772123 0.0 
0.0285682 0.173596 0.0 
3.56944 0.143615 0.0 
5.16625 -0.902404 0.0 
0.425461 -0.0460145 0.0 
1.38609 -0.847178 0.0 
0.520909 -0.0389841 0.0 
4.55484 0.54821 0.0 
1.4616 0.543244 0.0 
-1.51227 -3.24022 0.0 
0.195347 -0.0434187 0.0 
0.773677 0.0218742 0.0 
2.8431 0.557929 0.0 
0.716175 0.028287 0.0 
2.39889 -2.99953 0.0 
-0.51449 -0.450123 0.0 
0.258525 0.0466297 0.0 
4.25711 0.659543 0.0 
-2.40935 0.24635 0.0 
0.709715 0.026853 0.0 
0.461961 -0.0451465 0.0 
4.33861 1.14821 0.0 
1.20554 -2.71579 0.0 
4.74695 -0.0834236 0.0 
-1.25611 -2.04971 0.0 
0.105046 -0.035758 0.0 
4.33429 0.977449 0.0 
5.09236 -1.028 0.0 
3.17292 -0.964184 0.0 
0.783705 -0.0213671 0.0 
-0.696512 0.213324 0.0 
0.694681 -1.0517 0.0 
2.0986 0.950783 0.0 
-0.144149 -1.14963 0.0 
5.98059 -0.0630815 0.0 
0.272064 0.0469145 0.0 
7.58514 -1.24129 0.0 
0.163388 0.0413523 0.0 
1.3889 0.372075 0.0 
4.27843 -0.00377209 0.0 
0.744189 -0.0244378 0.0 
2.79687 -2.66962 0.0 
0.653549 0.0309269 0.0 
2.68167 3.30593 0.0 
0.794288 0.0215449 0.0 
-2.47477 1.26123 0.0 
5.09925 -1.86304 0.0 
-0.466599 0.560973 0.0 
-0.330097 -1.0788 0.0 
5.7239 -0.911637 0.0 
3.61674 6.08518 0.0 
0.362692 0.525858 0.0 
3.19883 0.102832 0.0 
0.22945 2.81099 0.0 
0.641973 0.0318816 0.0 
7.10696 -3.51522 0.0 
1.0976 -0.906533 0.0 
-0.983346 0.0960112 0.0 
3.69587 0.974536 0.0 
0.43894 0.0460078 0.0 
5.1257 0.97087 0.0 
-0.622535 0.30182 0.0 
-1.56092 3.32284 0.0 
5.43119 -0.717194 0.0 
5.33983 1.75066 0.0 
-1.42733 7 0.0 
0.910732 -0.0118628 0.0 
2.4817 0.280534 0.0 
3.13538 2.12501 0.0 
0.361087 0.0547235 0.0 
5.82914 1.78028 0.0 
-0.821698 0.503315 0.0 
0.290106 -0.049867 0.0 
4.75976 3.94984 0.0 
1.82454 0.70259 0.0 
-1.63339 5.68418 0.0 
0.566444 0.0366038 0.0 
2.31934 -1.53538 0.0 
0.25718 0.0458892 0.0 
2.57004 -1.3673 0.0 
3.63568 -1.99783 0.0 
0.530012 -0.039092 0.0 
0.649549 -0.0431496 0.0 
4.32836 0.47074 0.0 
0.655561 0.817909 0.0 
3.18094 -0.81054 0.0 
-0.426085 0.78836 0.0 
0.863499 0.0220645 0.0 
3.9173 -2.64737 0.0 
1.81616 0.825568 0.0 
5.21321 -0.3675 0.0 
5.05131 -2.3443 0.0 
2.76676 -0.692798 0.0 
0.523287 -0.0392515 0.0 
-0.334864 -1.48154 0.0 
-0.686158 0.502283 0.0 
1.92641 0.64398 0.0 
0.731698 -0.0325633 0.0 
0.856785 -0.0286247 0.0 
7.15765 -0.0187663 0.0 
0.379531 -0.0439182 0.0 
4.50834 1.24285 0.0 
5.04618 1.12251 0.0 
-2.75505 1.07417 0.0 
-0.376301 0.599203 0.0 
3.44752 -0.852391 0.0 
0.698623 0.0279606 0.0 
0.121194 0.0455902 0.0 
5.716 0.456114 0.0 
0.808472 1.96142 0.0 
6.81304 0.755503 0.0 
-0.0582398 -0.866136 0.0 
7.71188 -2.96547 0.0 
-3.53705 1.25281 0.0 
0.465882 -0.0460405 0.0 
2.68677 1.09402 0.0 
0.248043 0.0606486 0.0 
5.1925 -0.455267 0.0 
4.24047 0.492028 0.0 
0.110835 -0.0368906 0.0 
-4.31281 0.610337 0.0 
5.32607 -0.517305 0.0 
0.295832 0.0451375 0.0 
1.6222 -1.05255 0.0 
4.61321 0.946391 0.0 
1.26604 -1.76966 0.0 
13.473 0.899641 0.0 
0.616902 -0.0332103 0.0 
0.809136 -0.975967 0.0 
4.51167 -3.90486 0.0 
3.31578 -0.147805 0.0 
-1.70514 0.742376 0.0 
0.140221 -0.0404193 0.0 
-2.86794 -1.50104 0.0 
-3.9925 0.39875 0.0 
0.688043 -0.0283487 0.0 
0.41163 0.0431436 0.0 
0.070736 0.0310864 0.0 
0.60708 -0.0352384 0.0 
5.6406 -0.275737 0.0 
6.11037 -2.86662 0.0 
-1.04888 -2.63871 0.0 
-1.14969 -3.07497 0.0 
1.73323 -4.24468 0.0 
-1.4039 -0.0451297 0.0 
6.09745 -0.766074 0.0 
0.273565 -0.0568202 0.0 
-1.09339 -0.536899 0.0 
0.00345425 -2.89962 0.0 
6.81416 0.1292 0.0 
0.517155 -0.0432512 0.0 
6.01276 1.28167 0.0 
13.9816 4.77172 0.0 
0.28396 -0.0453167 0.0 
2.88058 -0.741008 0.0 
7.84664 -1.16271 0.0 
2.15075 -1.20416 0.0 
3.54818 -1.20239 0.0 
0.473618 -0.0401675 0.0 
14.87 -0.029199 0.0 
1.00775 4.0316 0.0 
0.974025 -0.0409629 0.0 
8.22526 -4.8738 0.0 
0.887209 -0.544502 0.0 
0.998481 -0.832441 0.0 
0.568923 0.0364122 0.0 
0.727782 0.0259556 0.0 
5.48092 1.38943 0.0 
-1.83845 -0.200487 0.0 
4.07801 1.29724 0.0 
2.08625 -0.925211 0.0 
0.0620809 -0.817764 0.0 
5.27023 -0.626315 0.0 
0.912606 -0.011047 0.0 
5.49899 -0.273558 0.0 
3.90043 4.10085 0.0 
0.0225377 3.95803 0.0 
5.21047 -0.750396 0.0 
-0.521178 -1.1139 0.0 
-4.44721 3.72648 0.0 
1.36924 0.584406 0.0 
-0.253096 1.92927 0.0 
3.93985 2.09146 0.0 
0.774692 0.0307712 0.0 
-2.02904 3.58675 0.0 
3.2496 -2.26857 0.0 
5.32949 -0.773983 0.0 
2.23867 1.77032 0.0 
1.10652 -1.9489 0.0 
0.312913 -0.0849242 0.0 
0.0172552 -0.0162453 0.0 
9.45979 0.781166 0.0 
6.74235 6.39225 0.0 
4.68058 2.94067 0.0 
15.5 -1.66279 0.0 
3.62151 -1.55948 0.0 
0.397477 0.0436231 0.0 
0.657063 -2.70441 0.0 
-1.28443 -4.02214 0.0 
2.83372 -3.64336 0.0 
5.09615 0.78562 0.0 
0.555374 0.97002 0.0 
4.12345 -0.30452 0.0 
1.90219 2.04198 0.0 
6.28646 5.2043 0.0 
0.144398 2.14983 0.0 
0.956097 0.00557641 0.0 
5.95507 -1.30786 0.0 
5.28508 -1.41701 0.0 
0.432992 -1.28321 0.0 
0.23712 -0.0595424 0.0 
5.60263 1.58075 0.0 
0.664231 0.0303894 0.0 
0.386978 2.29806 0.0 
5.26558 1.13033 0.0 
-3.13271 -2.17991 0.0 
2.1442 -1.39367 0.0 
-0.206047 6.45275 0.0 
-4.12487 -2.83898 0.0 
5.83445 0.975451 0.0 
4.31721 4.04332 0.0 
3.07279 0.575238 0.0 
0.608711 -0.0348912 0.0 
4.43117 3.64632 0.0 
3.19622 -1.06892 0.0 
1.75502 -1.91759 0.0 
8.9956 3.97791 0.0 
11.4173 3.59115 0.0 
0.696639 0.0581677 0.0 
1.37197 -0.474784 0.0 
4.33724 -6.58225 0.0 
-1.74472 1.55061 0.0 
1.56045 1.14697 0.0 
13.9459 -3.10045 0.0 
-1.52858 0.284609 0.0 
0.106452 0.0364003 0.0 
-0.919681 0.994772 0.0 
3.52309 1.62761 0.0 
3.72888 -0.862891 0.0 
1.42118 -3.00108 0.0 
-1.07301 -6.0599 0.0 
1.40469 -0.738384 0.0 
4.95271 -3.62788 0.0 
5.40941 0.71042 0.0 
0.0146518 -0.0153777 0.0 
2.39027 0.982076 0.0 
-3.0083 2.64591 0.0 
1.14279 -1.05216 0.0 
1.71616 -3.85788 0.0 
0.980652 -1.61171 0.0 
1.25891 -2.13878 0.0 
-1.36365 -0.87363 0.0 
0.610031 -0.0346186 0.0 
-0.557188 -0.335255 0.0 
0.541448 -2.2265 0.0 
-0.545654 0.489578 0.0 
7.26064 2.03351 0.0 
0.604301 1.12738 0.0 
5.57108 -0.830566 0.0 
2.68815 -1.19547 0.0 
6.2361 -1.41474 0.0 
1.66026 2.81597 0.0 
-0.477172 -3.29624 0.0 
10.0245 -3.30748 0.0 
5.02743 0.40075 0.0 
0.0402966 -0.0250356 0.0 
0.107464 -0.044637 0.0 
14.2747 6.40505 0.0 
3.98603 -3.11015 0.0 
-3.89751 -1.54046 0.0 
-1.64818 0.0546894 0.0 
-1.42996 0.459698 0.0 
2.46657 -2.69838 0.0 
0.0143401 -0.0718848 0.0 
0.0999988 0.0356153 0.0 
0.774483 0.0260124 0.0 
-0.979663 -0.741265 0.0 
-3.94398 -5.64295 0.0 
5.3254 1.99652 0.0 
0.351769 -1.60556 0.0 
8.56083 -0.889949 0.0 
1.95068 -1.23123 0.0 
-3.91942 4.62704 0.0 
0.247881 -0.0952808 0.0 
-1.06096 -1.19217 0.0 
4.79818 -5.95027 0.0 
-3.24218 -1.28865 0.0 
0.663356 0.0302614 0.0 
1.24529 -0.90962 0.0 
2.7168 0.0441524 0.0 
-0.782758 -0.876825 0.0 
5.78736 -1.72714 0.0 
2.23835 1.05059 0.0 
-0.788002 4.00714 0.0 
0.203486 0.0442897 0.0 
2.90626 -1.72723 0.0 
0.709537 0.0263426 0.0 
5.97351 -3.18221 0.0 
2.38312 -0.608132 0.0 
[...]
<PointData>
  <DataArray type = "Float64" Name="VitesseP1" NumberOfComponents="3" format="ascii">
1 0 0.0 
1.00001 0 0.0 
1.00001 0 0.0 
1 0 0.0 
0.999142 -0.00290803 0.0 
0.00662507 0.000381357 0.0 
0.991983 0.00699279 0.0 
1.00016 -0.00221693 0.0 
1.02664 0.0133616 0.0 
0.715696 0.397556 0.0 
1.00007 0.00143309 0.0 
1.00164 -0.00150253 0.0 
1.00133 -0.00164636 0.0 
1.00015 -0.00302568 0.0 
0.999221 0.00178997 0.0 
1.00079 -0.00285023 0.0 
0.995605 -0.00214325 0.0 
0.999135 0.00247414 0.0 
0 0 0.0 
1.00269 0.00579433 0.0 
1.00236 0.000172039 0.0 
0.987929 -0.00691907 0.0 
1.00047 0.000396964 0.0 
0.240452 0.018532 0.0 
0.998925 -0.00284698 0.0 
1.00017 0.00260187 0.0 
0.999059 -0.0011355 0.0 
1.06996 -0.0401919 0.0 
1.0003 0.00145275 0.0 
0.999785 -1.09785e-05 0.0 
1.00349 -0.00271134 0.0 
1.00056 -0.000454563 0.0 
1.00174 -0.000677618 0.0 
1.00001 -0.00351333 0.0 
1.01032 0.00884284 0.0 
0.991753 0.00944893 0.0 
1.09666 0.0855508 0.0 
0.0101162 -0.000608527 0.0 
0.99892 -0.00299568 0.0 
0.999632 0.000142092 0.0 
0.99863 0.00179175 0.0 
1.00029 -0.00251127 0.0 
1.00003 0.00851114 0.0 
1.0097 -0.00361382 0.0 
0.99977 -0.000434633 0.0 
1.00088 -0.00340977 0.0 
0 0 0.0 
1.00863 0.000823634 0.0 
0.999441 0.00022687 0.0 
1.00814 0.00278808 0.0 
0.999465 -0.00162562 0.0 
0 0 0.0 
1.00082 0.000523031 0.0 
0.999303 -0.0023242 0.0 
0.999351 -0.000531653 0.0 
0 0 0.0 
1.06414e-09 9.78464e-10 0.0 
0.0147142 0.000115268 0.0 
1.11675 0.091942 0.0 
1.00108 0.00184918 0.0 
0.00317761 0.000309204 0.0 
1.00001 -4.96406e-06 0.0 
0.0479385 0.00425718 0.0 
1.00091 0.00280573 0.0 
1.01026 -0.00602558 0.0 
1.07057 -0.00772496 0.0 
1.00097 0.00484043 0.0 
0 0 0.0 
1.00324 -0.00923046 0.0 
0.998064 -0.00302397 0.0 
1.00029 0.000796131 0.0 
0.998412 -0.0155228 0.0 
1.00063 0.000497831 0.0 
8.62182e-08 -1.01255e-08 0.0 
1.00074 0.00241946 0.0 
0.999934 0.00120234 0.0 
0.999953 3.17931e-05 0.0 
1.00627 0.0136655 0.0 
0.999864 0.000367697 0.0 
1.00017 -0.00610231 0.0 
1.00011 0.000742916 0.0 
0.999391 0.00651925 0.0 
0.998973 0.00106218 0.0 
0.999724 0.0013482 0.0 
0.99929 -0.00105385 0.0 
5.64432e-08 -3.70563e-09 0.0 
0.999484 -0.00205608 0.0 
0.286183 -0.024376 0.0 
0.999275 -0.00217908 0.0 
1.00251 0.00397955 0.0 
1.00029 -8.17204e-05 0.0 
1.00009 -0.00497593 0.0 
0.999213 -0.000429271 0.0 
0.998323 0.00229005 0.0 
1.00024 -0.00231088 0.0 
1.00034 0.00265389 0.0 
0.267189 0.00840379 0.0 
1.0012 0.00423371 0.0 
0 0 0.0 
0.997451 0.00513666 0.0 
0.582392 0.0678133 0.0 
1.054 -0.0605988 0.0 
0.999624 -0.00119982 0.0 
1.00034 -0.00227752 0.0 
1.00468 0.00232069 0.0 
0.0592339 0.00371518 0.0 
0.998614 -0.00678 0.0 
0 0 0.0 
1.00019 -0.00316139 0.0 
0.999292 -0.000706651 0.0 
1.07691 0.0220084 0.0 
0.575519 0.0129596 0.0 
0.918659 0.000511263 0.0 
0 0 0.0 
0.474952 0.0274887 0.0 
1.00004 -0.000433424 0.0 
0.0154838 0.000174856 0.0 
1.08492 -0.00046459 0.0 
1.00906 -0.0399764 0.0 
0.995476 0.00338142 0.0 
0.998438 -0.000449036 0.0 
1.00089 -0.0027017 0.0 
1.00074 -0.00444903 0.0 
1.00102 -0.0049238 0.0 
1.00012 -0.000449895 0.0 
0 0 0.0 
1.00164 -0.000127071 0.0 
1.00108 0.00157029 0.0 
0.996408 0.00780825 0.0 
0.149601 -0.0115904 0.0 
0.952765 -0.0943621 0.0 
0.761888 -0.000784433 0.0 
1.00932 0.0912405 0.0 
1.00016 -0.00283991 0.0 
0.999248 0.00112381 0.0 
0.231382 0.00719902 0.0 
1.00359 0.00705967 0.0 
0.00872963 0.000361739 0.0 
0.999231 -0.00177451 0.0 
1.00019 -0.00889157 0.0 
1.00076 -0.00116516 0.0 
0.0485312 -0.00270164 0.0 
0 0 0.0 
1.00036 -0.00274512 0.0 
0.0803038 -0.00565295 0.0 
1.00148 0.000899018 0.0 
0.992567 -0.0118843 0.0 
0.180289 0.00280858 0.0 
0.999506 -0.00195054 0.0 
0.998808 0.000320547 0.0 
0 0 0.0 
0.252881 0.00958705 0.0 
0.999756 -0.0016339 0.0 
1.00254 0.000280489 0.0 
0.999755 0.00218717 0.0 
1.00083 -0.00244215 0.0 
0 0 0.0 
0.999676 -0.00171909 0.0 
0.999375 0.00116802 0.0 
1.00047 0.00245083 0.0 
7.91152e-07 5.41182e-08 0.0 
0.989158 0.00487701 0.0 
1.01073 0.0016698 0.0 
1.00113 -0.00368762 0.0 
1.00525 -0.00735475 0.0 
0.998884 6.43984e-05 0.0 
0.186455 0.00133632 0.0 
0.999747 0.000198277 0.0 
1.687e-07 2.03072e-08 0.0 
0.997127 -0.011032 0.0 
0.946172 0.000438583 0.0 
1.05458e-07 7.47605e-09 0.0 
1.00127 0.00119744 0.0 
1.0091e-08 -4.1429e-10 0.0 
1.00125 -0.000758491 0.0 
0.0446841 -0.0029815 0.0 
0.999561 0.00114564 0.0 
0.999879 0.00100772 0.0 
0.995531 0.0127874 0.0 
1.00308 -0.00808175 0.0 
0.999296 0.000700015 0.0 
1.00073 -0.000122015 0.0 
1.0294 0.00803174 0.0 
1.00878 -0.00320008 0.0 
1.00239 0.00106543 0.0 
0.00893113 -0.000671553 0.0 
1.00007 0.000309045 0.0 
1.00731 0.006851 0.0 
0.992667 0.00104005 0.0 
1.00006 -0.00210159 0.0 
0.259333 -0.00841501 0.0 
0.99939 -0.00114204 0.0 
0.989496 0.00785488 0.0 
1.00071 0.00109386 0.0 
0.999104 0.000885235 0.0 
0.99983 -0.000902724 0.0 
1.00037 0 0.0 
0.0555978 0.00534073 0.0 
0.999889 -0.00272216 0.0 
1.00092 -0.00157255 0.0 
0.789843 -0.00760657 0.0 
0.999791 -0.000698021 0.0 
0.994513 0.00631044 0.0 
0.45808 -0.00403055 0.0 
1.00049 -0.00053403 0.0 
1.00058 -0.00507211 0.0 
1.00041 0.000254909 0.0 
0.00947151 -0.000867035 0.0 
1.00156 0.00253382 0.0 
0.105443 0.000992877 0.0 
1.00106 0.00255659 0.0 
1.00058 0.0015396 0.0 
0.0393537 0.00161008 0.0 
0.627527 0.0380646 0.0 
0.999309 -0.00201765 0.0 
1.01519 -0.00307888 0.0 
1.00034 0.00254002 0.0 
0.999959 0.0110218 0.0 
0.327407 -0.027039 0.0 
1.00059 0.00111353 0.0 
1.00122 -0.00486583 0.0 
0.998632 0.00109248 0.0 
1.00008 0.000900234 0.0 
1.00043 0.00280411 0.0 
0.0291191 0.000649274 0.0 
1.00319 -0.00496994 0.0 
0.993943 0.0082023 0.0 
1.00016 -0.00457087 0.0 
0.368317 0.0263355 0.0 
0.562356 0.0445517 0.0 
0.999567 -9.02129e-06 0.0 
0 0 0.0 
0.99973 -0.00148334 0.0 
0.999494 -0.00117501 0.0 
0.999535 0.00083792 0.0 
0.997592 0.0145506 0.0 
1.0002 0.00240324 0.0 
0.00562218 -0.000553125 0.0 
1.02707 0.12112 0.0 
0.999005 -0.00061885 0.0 
1.00423 -4.77162e-05 0.0 
0.999555 -0.000257853 0.0 
1.00765 -0.0114497 0.0 
0.999981 0.000254472 0.0 
0.999862 0.000436895 0.0 
0.329178 0.0125054 0.0 
1.00076 -0.00266285 0.0 
1.10436 0.0390125 0.0 
0.998788 0.00112047 0.0 
0.999388 -0.00207379 0.0 
0.0420303 -0.00301652 0.0 
0.999955 9.61937e-05 0.0 
0.998891 0.00097117 0.0 
9.77433e-09 4.35936e-10 0.0 
1.00294 0.00480681 0.0 
0.999531 -0.00153958 0.0 
1.00417 0.00161168 0.0 
0.999983 -9.5171e-06 0.0 
0 0 0.0 
1.01067 0.00376135 0.0 
1.00053 0.000579223 0.0 
0.999886 0.00297516 0.0 
0.998237 0.00195685 0.0 
0.139846 -0.0107286 0.0 
0.999771 -0.000885171 0.0 
0.999888 0.000102305 0.0 
0 0 0.0 
0 0 0.0 
0.0410921 0.0057437 0.0 
0.0670307 0.00319657 0.0 
0.998893 0.000463318 0.0 
1.00004 0.000521548 0.0 
1.00121 -0.00185758 0.0 
1.00103 -0.00141225 0.0 
1.0013 0.000149076 0.0 
0.996017 -0.000272035 0.0 
0.999316 0.000456221 0.0 
0.985445 -0.0220676 0.0 
0.995975 -0.00392489 0.0 
1.00214 -0.00123043 0.0 
0.999464 -6.85638e-05 0.0 
0.272515 0.0125002 0.0 
0.999584 -0.000619395 0.0 
1.00001 -1.36621e-05 0.0 
0.0171461 0.000315211 0.0 
1.0004 0.00271521 0.0 
0.999771 0.000155205 0.0 
1.00152 0.00322291 0.0 
1.00027 0.00210195 0.0 
0 0 0.0 
0.999991 -8.90587e-07 0.0 
1.00146 0.000161581 0.0 
0.924319 0.0681255 0.0 
1.00012 0.000135136 0.0 
1.01413 0.0150435 0.0 
1.00899 0.00764725 0.0 
0.0102233 -0.000552281 0.0 
0.0147278 -0.00108534 0.0 
0.999636 -0.000887068 0.0 
0.997745 -0.000594884 0.0 
0.999979 -0.00171233 0.0 
1.00108 0.00377496 0.0 
1.01087 -0.0116528 0.0 
0.999014 0.00103082 0.0 
0.0343365 0.00321493 0.0 
0.998793 0.000641622 0.0 
1.00073 -0.000534806 0.0 
1.00135 0.000706613 0.0 
0.999118 0.00109601 0.0 
1.00145 -0.00714451 0.0 
1.00001 0.000140232 0.0 
1.00148 -0.00978015 0.0 
1.00293 0.0030802 0.0 
1.00041 -0.00135508 0.0 
0.424038 -0.0318654 0.0 
1.0005 0.000818933 0.0 
1.00089 0.00146402 0.0 
0.999139 0.000981853 0.0 
1.0018 -0.00217181 0.0 
1.0039 0.000940631 0.0 
1.10907 -0.0151093 0.0 
0 0 0.0 
0.999886 -5.21574e-05 0.0 
1.0003 -6.32472e-05 0.0 
1.00036 -0.000816662 0.0 
0.999995 5.43952e-06 0.0 
1.00039 0.00183097 0.0 
0 0 0.0 
1.00268 -0.000481995 0.0 
1.00075 -0.000817085 0.0 
1.00113 0.000645361 0.0 
0.999284 -0.00119803 0.0 
1.01285 0.000207097 0.0 
0.999171 0.00249476 0.0 
1.00232 -0.00169979 0.0 
1.00032 -0.0002126 0.0 
1.00345 0.00182359 0.0 
0.00394384 -0.00042618 0.0 
0.999553 0.000627959 0.0 
0.999603 0.000984546 0.0 
1.00829 -0.00187364 0.0 
1.09873 -0.0440771 0.0 
0.999732 -0.000805112 0.0 
0.00804184 -0.000351652 0.0 
1.00343 0.00109215 0.0 
0.999467 -0.00102301 0.0 
0.999995 -0.000745135 0.0 
1.00163 0.00288768 0.0 
1.00067 0.000122172 0.0 
1.00002 -0.000283054 0.0 
0.999401 -0.000666226 0.0 
1.00061 -0.000546058 0.0 
1.00029 -0.00265554 0.0 
0.0529925 0.00275476 0.0 
1.00054 -0.000644713 0.0 
1.00049 0.00237278 0.0 
1.0027 0.0018646 0.0 
1.00005 -0.000132182 0.0 
1.00001 -4.94948e-05 0.0 
1.02396 -0.0577155 0.0 
0.999711 0.010907 0.0 
1.00061 6.14684e-05 0.0 
0.999824 0.002165 0.0 
1.00321 -0.00439013 0.0 
0.999996 1.46616e-05 0.0 
0.996771 0.00115673 0.0 
0.0444 0.0068778 0.0 
0.998894 0.00543933 0.0 
1.00056 -0.00178879 0.0 
0.999994 0.00225419 0.0 
1.00213 0.000363828 0.0 
1.0005 -0.000199463 0.0 
1.00292 0.0079333 0.0 
1.00039 0.000596341 0.0 
0.999193 -0.0009336 0.0 
0.0985651 -0.052551 0.0 
1.0009 -0.00309829 0.0 
1.00011 0.000752089 0.0 
1.00649 0.00509349 0.0 
1.00148 0.000227258 0.0 
1.00529 0.00118471 0.0 
1.00323 0.00090465 0.0 
0.998186 -0.00317142 0.0 
0.0419731 0.0023776 0.0 
0.989227 -0.00987757 0.0 
1.00362 -0.000846186 0.0 
0.993527 0.0110959 0.0 
0.999864 -0.000320582 0.0 
1.00973 -5.69452e-05 0.0 
0.999208 0.000790759 0.0 
1.00085 0.00262341 0.0 
0.999617 0.000527692 0.0 
1.0021 -0.000654511 0.0 
1.00146 -0.00126261 0.0 
0.999994 8.68738e-05 0.0 
0.998874 -0.00134311 0.0 
0.134559 -0.0336111 0.0 
1.07069 -0.142907 0.0 
1.00001 -3.76526e-06 0.0 
1.00062 0.000888219 0.0 
0.999953 -0.000358725 0.0 
0.997127 0.000199649 0.0 
0.996961 0.00201086 0.0 
1.00152 0.00114179 0.0 
0.968971 -0.191174 0.0 
0.0555522 0.00836784 0.0 
0.182027 -0.0141212 0.0 
0.997241 -0.00528065 0.0 
1.00005 -0.000106569 0.0 
0.999913 -0.000866548 0.0 
1.00578 -0.00203374 0.0 
0.999824 8.03314e-05 0.0 
1.00195 0.00346629 0.0 
1.00005 0.00019633 0.0 
1.10885 -0.0418554 0.0 
0.999591 -0.00434177 0.0 
1.00054 0.000154969 0.0 
0.999776 -0.000592613 0.0 
9.2016e-09 -6.73541e-10 0.0 
1.00537 0.00676275 0.0 
0.920193 -0.00219024 0.0 
0.998591 -0.00671562 0.0 
0.999716 0.000715009 0.0 
1.00112 -0.003292 0.0 
1.00098 0.000871642 0.0 
0.108279 0.00368263 0.0 
1.00105 0.00200377 0.0 
0 0 0.0 
1.00012 0.000512035 0.0 
1.00033 0.0031919 0.0 
0.999901 -0.000564419 0.0 
0.999501 0.000271778 0.0 
0 0 0.0 
4.81969e-09 -6.43883e-10 0.0 
0.999972 0.000301155 0.0 
1.00051 -0.00154642 0.0 
1.00005 9.84593e-05 0.0 
0.999707 0.000720373 0.0 
1.00001 -0.00015054 0.0 
0.996505 0.00317382 0.0 
0.999906 0.00155208 0.0 
1.00181 -0.00249015 0.0 
0.999954 7.24904e-05 0.0 
1.00003 0.000135651 0.0 
0.999983 3.70455e-05 0.0 
1.01943 -0.00504647 0.0 
0.999229 -0.00130242 0.0 
0.998702 -0.00555641 0.0 
0.998859 0.00023808 0.0 
0.998214 0.00158965 0.0 
0.999887 0.00170557 0.0 
0.999812 0.00169901 0.0 
1.0034 -0.0019742 0.0 
1.00174 -0.000190296 0.0 
1.00001 -0.000143819 0.0 
0.999213 0.00126083 0.0 
1.00056 0.00264089 0.0 
0.999931 0.00295753 0.0 
0.996924 -0.000514597 0.0 
0.999937 0.000652279 0.0 
1.0077 -0.00810352 0.0 
0.999869 0.00229412 0.0 
1.00012 -0.00104421 0.0 
0.999909 0.00011979 0.0 
0.999832 -0.00102614 0.0 
1.00786 -0.00570652 0.0 
0.997505 0.000653145 0.0 
0.999984 1.20047e-05 0.0 
0.9999 -0.00067903 0.0 
1.00039 -0.000180117 0.0 
1.02131 -0.016351 0.0 
0.999184 0.00167909 0.0 
1.0005 0.00274024 0.0 
1 -0.00110176 0.0 
1.00099 0.00126019 0.0 
0.999992 -1.39866e-05 0.0 
1.00108 -0.000287282 0.0 
1.00002 -2.30598e-05 0.0 
1.00009 -0.000252362 0.0 
0.99998 -0.000143295 0.0 
0.998099 0.00679076 0.0 
1.00681 -0.00249076 0.0 
1.00002 -6.58558e-05 0.0 
0.999931 -2.57664e-05 0.0 
0.999841 -8.61351e-05 0.0 
0.873697 0.0652604 0.0 
1.00014 -5.4634e-05 0.0 
0.0716654 0.00456714 0.0 
0.999766 0.000202244 0.0 
1.00089 0.00126596 0.0 
0.999709 0.000349887 0.0 
0.999098 0.00240182 0.0 
1.00202 -0.00140952 0.0 
1.00026 -0.00010842 0.0 
0.999955 0.00211019 0.0 
0.999845 0.000666541 0.0 
1.00632 -0.00582395 0.0 
1.01801 0.0043262 0.0 
0.999869 -0.000102707 0.0 
0.998994 -0.00105002 0.0 
1.00197 0.065568 0.0 
0.999828 0.00220267 0.0 
0.999806 1.67888e-05 0.0 
0.99941 0.000137383 0.0 
1.00032 -0.00239201 0.0 
1 7.56373e-06 0.0 
1.07731 -0.261845 0.0 
1.00001 -1.60631e-05 0.0 
0 0 0.0 
1.00204 -0.00224709 0.0 
1.00024 0.00104515 0.0 
1.00028 -0.000220217 0.0 
1.00171 -0.0010511 0.0 
1.00059 -0.000728399 0.0 
1.00065 -0.00179791 0.0 
0.999502 0.000176427 0.0 
0.582848 0.00465507 0.0 
0.999995 -1.1576e-05 0.0 
1.00073 -0.000305445 0.0 
0.999898 9.16138e-05 0.0 
1.00009 -0.000349767 0.0 
1.00037 -9.78887e-05 0.0 
1.00071 -0.00166974 0.0 
0.999481 -0.000906235 0.0 
0.999994 1.85013e-05 0.0 
1.00723 0.00268188 0.0 
1.00118 -0.00228034 0.0 
0 0 0.0 
1.01502 0.00695353 0.0 
0.99896 0.00176399 0.0 
0.999987 -6.3087e-07 0.0 
0.999401 0.00162403 0.0 
1.00167 -0.00262531 0.0 
0.999675 0.000206503 0.0 
1.00093 0.0014668 0.0 
0.99663 0.00567467 0.0 
9.08303e-08 -4.50994e-08 0.0 
0.689318 0.00840958 0.0 
0.999871 0.000170433 0.0 
0.0541202 -0.00793124 0.0 
1.00034 -0.00215758 0.0 
1.00419 0.000225443 0.0 
1.00055 -0.00104298 0.0 
0.999882 -0.000499915 0.0 
1.00081 -0.000454329 0.0 
1.00397 0.00552725 0.0 
0.993318 -0.000725149 0.0 
1.00502 -0.0133033 0.0 
1.00155 -0.00062468 0.0 
1.00149 0.00185049 0.0 
0.657188 -0.0528278 0.0 
1.0008 0.000701524 0.0 
1.00001 1.82983e-05 0.0 
0.299905 0.0216123 0.0 
1.9964e-08 8.08016e-11 0.0 
1.00143 -0.000859376 0.0 
1.00027 0.00261024 0.0 
1.00113 0.000348577 0.0 
1.00009 -0.000898883 0.0 
0.394613 -0.0242929 0.0 
0 0 0.0 
0.999341 -0.000583997 0.0 
1.00086 -0.00112367 0.0 
0.999949 3.8654e-06 0.0 
1.00037 0.00077617 0.0 
1.03356 0.044935 0.0 
0.0354182 0.00161906 0.0 
0.999385 0.000592078 0.0 
0.999997 -0.000131291 0.0 
1.00113 -0.00295386 0.0 
0.998881 -0.00372867 0.0 
0.999309 -0.000930316 0.0 
1.02438 -0.0231817 0.0 
1.00075 0.0021644 0.0 
1.00428 -0.00288224 0.0 
0.99989 -0.00183757 0.0 
0.999746 -0.000307242 0.0 
1.00042 -0.00265084 0.0 
0.592794 0.0400218 0.0 
1.00016 3.23292e-05 0.0 
1.00131 0.00159409 0.0 
0.999226 0.00101132 0.0 
0.999686 -0.000418897 0.0 
0.0151055 -0.000119415 0.0 
1.00079 -0.000245245 0.0 
1.00001 2.16996e-05 0.0 
0 0 0.0 
0.999738 0.00279144 0.0 
0.999791 0.00504153 0.0 
1.00413 -0.00171162 0.0 
2.85473e-08 -5.7297e-10 0.0 
1.00298 0.00219461 0.0 
0.999802 -0.000100678 0.0 
1.00739 -0.000346799 0.0 
1.00039 -0.00246494 0.0 
1.00144 -0.00212274 0.0 
1.0008 -0.000181858 0.0 
1.00061 0.000131372 0.0 
0 0 0.0 
1.00022 -0.00116695 0.0 
0.999996 9.20026e-06 0.0 
0.999529 0.00254888 0.0 
1.00301 0.000525712 0.0 
0.999995 -9.9817e-05 0.0 
0 0 0.0 
0.994802 -0.00106398 0.0 
1.00026 -0.00272525 0.0 
0.999342 0.00255815 0.0 
1.00013 -0.000375552 0.0 
0.999586 0.00273937 0.0 
0.999585 -0.00236803 0.0 
0.99977 0.00181255 0.0 
1.00004 0.00021595 0.0 
1.00072 0.00253578 0.0 
0.999986 0.000164833 0.0 
1.00052 -0.000773202 0.0 
1.00006 1.56844e-05 0.0 
0.998706 -0.00549741 0.0 
0.999453 0.000724284 0.0 
0.102883 -0.00541212 0.0 
1.00056 0.000285949 0.0 
0 0 0.0 
1.00008 0.000231381 0.0 
1.00121 -7.14305e-05 0.0 
0.999116 -0.000331957 0.0 
1.00037 -0.000254871 0.0 
0.999622 0.00115568 0.0 
1.00328 -0.00148306 0.0 
1.00062 0.000462803 0.0 
1.00016 -0.000110177 0.0 
0.999756 0.000497067 0.0 
0.031557 0.00198306 0.0 
0.999707 0.00448921 0.0 
1.00005 -7.53807e-05 0.0 
1.00193 -0.000372484 0.0 
1.00093 -0.000915875 0.0 
0.00948597 -0.00042931 0.0 
1.09737 0.00165987 0.0 
0.999978 -0.000601907 0.0 
1.00138 0.00503383 0.0 
0.999917 -0.00419827 0.0 
1.01342 0.00713337 0.0 
0.999791 -0.000359469 0.0 
1.00014 0.00168706 0.0 
1.00077 -0.000418612 0.0 
0.0479487 0.00331715 0.0 
1.00016 -0.000734313 0.0 
1.00109 0.00266642 0.0 
0.99985 0.00142791 0.0 
0.0179913 0.00032703 0.0 
0.0471826 0.00384138 0.0 
1.00025 0.0033191 0.0 
1.00006 4.56624e-05 0.0 
1.0006 0.00236118 0.0 
1.00047 0.000163338 0.0 
1.00144 -0.000190727 0.0 
0.999476 -0.000719573 0.0 
1.00031 0.000154924 0.0 
1 9.59649e-06 0.0 
0.98893 0.0102022 0.0 
0.32785 0.0247726 0.0 
0.999699 -0.00351889 0.0 
1.00837 0.00274116 0.0 
1 -1.48214e-05 0.0 
1.00157 -0.00213387 0.0 
1.00105 -0.000148293 0.0 
0.999779 0.00160673 0.0 
0.998901 0.00235795 0.0 
0.999996 0.000595727 0.0 
1.00094 0.0010293 0.0 
0 0 0.0 
0.999423 -0.000369943 0.0 
0.999961 -4.88186e-06 0.0 
0.99979 0.00286245 0.0 
1.00105 -0.000275214 0.0 
1.00252 0.00138595 0.0 
1.00012 7.79706e-05 0.0 
0.999994 7.35034e-06 0.0 
0 0 0.0 
1.00422 -0.00200007 0.0 
1.0005 -0.000881513 0.0 
1.0005 -0.000266542 0.0 
1 3.98716e-05 0.0 
1.00035 -0.000319758 0.0 
1.00118 -0.000528888 0.0 
1.00059 0.00251524 0.0 
1.00152 0.00215379 0.0 
0.999229 -0.000196935 0.0 
0.999881 0.000275087 0.0 
1.00075 -0.000219557 0.0 
1.00005 -0.000307451 0.0 
1.00077 0.0027148 0.0 
1.00638 -0.00387908 0.0 
1.00025 0.000129828 0.0 
1.00146 -0.00864896 0.0 
1.00008 1.76755e-05 0.0 
1.00082 -9.52077e-05 0.0 
1.00063 0.000289871 0.0 
1.00034 0.000337222 0.0 
1.00111 -0.000450484 0.0 
1.00099 -0.000395996 0.0 
1.0004 0 0.0 
1.0013 -0.0040153 0.0 
1.00032 0 0.0 
0.00834042 0.000248818 0.0 
0.357244 0.0262419 0.0 
1.00298 -0.0053867 0.0 
0.99985 1.67418e-06 0.0 
1.00005 0.000164875 0.0 
1.00018 0.00183601 0.0 
0.994409 -0.00404821 0.0 
1.00065 0.00125295 0.0 
0.998502 2.55257e-05 0.0 
1.0007 0.00033063 0.0 
1.00248 -0.00119857 0.0 
1.00002 0.000421636 0.0 
1.00316 0.000385537 0.0 
1.00012 -0.000115168 0.0 
1.00064 0.00129256 0.0 
1.01483 0.0188489 0.0 
1.00027 0.000372402 0.0 
0.999464 0.000471697 0.0 
1.00243 -0.0103675 0.0 
0.999399 0.00219699 0.0 
1.00138 0.000434208 0.0 
1.00009 0.000305657 0.0 
0 0 0.0 
1.00037 -0.000109447 0.0 
0.999825 0.000841717 0.0 
1.00044 8.21074e-05 0.0 
0.999903 0.00014754 0.0 
1.00038 0.00202983 0.0 
1.00041 -0.00258366 0.0 
0 0 0.0 
0 0 0.0 
0.997853 0.00501171 0.0 
1.0005 0.000463694 0.0 
1.00002 -5.65208e-05 0.0 
1.00001 -1.04066e-05 0.0 
1.0027 -0.00245478 0.0 
0.999373 -0.000113993 0.0 
0.999933 -0.000233309 0.0 
1.00041 -0.00166326 0.0 
1.00399 0.00668913 0.0 
1.00164 0.000848647 0.0 
1.00191 0.00432932 0.0 
0 0 0.0 
1.00183 0.00132173 0.0 
0.999973 -1.89063e-05 0.0 
1.00024 -0.00303257 0.0 
0.999362 -0.000212254 0.0 
0.999918 -6.32937e-05 0.0 
0.999987 5.62225e-06 0.0 
0.999971 -2.85477e-05 0.0 
1.00056 -0.0023215 0.0 
0.877087 -0.000685073 0.0 
1.00158 0.000769177 0.0 
1.00018 -0.000273851 0.0 
1.0003 9.01221e-05 0.0 
0.998463 0.00120426 0.0 
1.01274 -0.00256284 0.0 
0.0596886 0.00207535 0.0 
1.00281 0.00150889 0.0 
1.00345 -0.000171654 0.0 
1.00001 0.000107575 0.0 
0.999977 -0.000214118 0.0 
1.00163 -0.000405723 0.0 
1.0027 -0.0021678 0.0 
1.00057 -0.000546594 0.0 
1.00002 7.71342e-06 0.0 
0.99774 0.00142691 0.0 
0.999983 -0.000174956 0.0 
3.00281e-08 -6.44784e-09 0.0 
1.00004 4.32393e-05 0.0 
0.998909 0.000788347 0.0 
1.00346 0.00213839 0.0 
0.0414762 0.00226352 0.0 
1.00094 0.00012739 0.0 
1.0014 0.00622865 0.0 
1.00087 -0.000797883 0.0 
0.999937 -7.65453e-05 0.0 
0.999986 -1.16818e-05 0.0 
0.997974 -0.00178952 0.0 
1.00071 0.00071181 0.0 
1.00026 0.000596833 0.0 
0.999992 0.0137773 0.0 
0.999989 -8.41998e-05 0.0 
0.999795 -0.00363903 0.0 
1.00008 -0.00137719 0.0 
1.00129 0.000968872 0.0 
0.999971 8.34362e-05 0.0 
0.999916 0.000570192 0.0 
1.00071 -0.00364155 0.0 
1.00183 0.000986594 0.0 
0.999292 -0.00226009 0.0 
0.999991 3.84449e-05 0.0 
1.00018 -0.000153193 0.0 
1.00244 -0.000804899 0.0 
0.999795 5.33782e-05 0.0 
1.02922 -0.0558788 0.0 
1.00029 0.00283373 0.0 
1.00003 -0.000196305 0.0 
1.00037 -0.0010253 0.0 
1.00505 -0.00189785 0.0 
0.999776 0.000363761 0.0 
1.00016 -0.000390944 0.0 
1.00022 -0.000512282 0.0 
1.0003 0.00116899 0.0 
1.00174 -0.00178428 0.0 
1.00122 0.00224649 0.0 
1.00172 0.00154155 0.0 
0 0 0.0 
1.00079 3.99299e-05 0.0 
1.00541 0.0027402 0.0 
0.0122257 -0.000194567 0.0 