<VTKFile type="UnstructuredGrid" version="0.1" byte_order="LittleEndian">
  <UnstructuredGrid>
    <Piece NumberOfPoints="9712" NumberOfCells="19403">
      <Points>
        <DataArray type = "Float64" NumberOfComponents="3" format="ascii">
-5 -7 0.0 
15.5 -7 0.0 
15.5 7 0.0 
-5 7 0.0 
-1.6546 1.77742 0.0 
-2.13867 1.86504 0.0 
-1.83467 1.79143 0.0 
1.47969 -2.21179 0.0 
1.36003 -2.38618 0.0 
1.4346 -2.45048 0.0 
-2.04214 1.94165 0.0 
-0.20425 1.17338 0.0 
-2.07648 1.81911 0.0 
-2.00827 1.89081 0.0 
-2.05492 1.98872 0.0 
0.192693 0.536219 0.0 
0.154285 1.75648 0.0 
1.1379 -1.62057 0.0 
-2.11226 1.96977 0.0 
-1.74119 1.75327 0.0 
1.14499 -1.58184 0.0 
-1.94373 2.37229 0.0 
1.50619 -0.664239 0.0 
1.99658 -1.76705 0.0 
1.7229 -1.18344 0.0 
-1.97759 2.52091 0.0 
-0.768046 0.387136 0.0 
1.32657 -1.43969 0.0 
1.90142 0.24821 0.0 
-0.93264 1.51038 0.0 
1.09557 0.967223 0.0 
0.627111 0.757352 0.0 
-2.05707 2.31394 0.0 
1.34027 -2.45136 0.0 
-0.725097 0.397516 0.0 
-0.666094 2.30428 0.0 
-0.73829 -0.279965 0.0 
1.73336 -1.08822 0.0 
1.88466 -1.24421 0.0 
1.50539 -1.23752 0.0 
1.65978 -1.30759 0.0 
-0.0409718 0.542603 0.0 
1.6005 -1.1227 0.0 
1.78439 -0.941488 0.0 
1.86015 -1.54236 0.0 
1.49308 -1.40058 0.0 
2.34892 -1.47149 0.0 
2.13832 -1.3246 0.0 
1.73061 0.751302 0.0 
-0.580328 0.526903 0.0 
1.51013 -2.1595 0.0 
-1.65424 3.45779 0.0 
-1.51397 2.46352 0.0 
1.42773 -2.17867 0.0 
0.304353 0.497878 0.0 
2.24628 0.228293 0.0 
1.51258 -2.27933 0.0 
-1.60346 3.44299 0.0 
-1.71408 2.36227 0.0 
2.17421 0.530405 0.0 
2.42 0.316451 0.0 
-1.63642 3.31911 0.0 
2.53942 -0.995036 0.0 
0.750003 0.810439 0.0 
2.04736 0.40918 0.0 
1.19615 -1.50641 0.0 
2.13474 0.494063 0.0 
0.547924 0.306722 0.0 
-0.2059 0.361394 0.0 
2.2127 0.547693 0.0 
1.41442 -0.597105 0.0 
1.52233 -1.46252 0.0 
-1.84114 2.53924 0.0 
-5 -2.53894 0.0 
2.32127 0.371156 0.0 
-1.69186 3.33379 0.0 
-0.964779 0.566136 0.0 
-1.81311 2.48387 0.0 
-1.78557 3.38304 0.0 
1.48278 0.914136 0.0 
2.51531 -1.89689 0.0 
1.20982 -0.330514 0.0 
0.408434 0.319657 0.0 
0.95023 0.60993 0.0 
-0.752349 0.440796 0.0 
-0.998248 0.564019 0.0 
-1.73165 3.36299 0.0 
1.24353 -1.49063 0.0 
0.942095 0.817189 0.0 
-1.77816 2.47096 0.0 
2.48183 -1.95479 0.0 
1.33574 -1.77854 0.0 
0.823335 1.12085 0.0 
-0.36308 0.598468 0.0 
0.745466 0.783414 0.0 
-1.88344 2.8521 0.0 
-1.79794 3.52221 0.0 
3.0087 0.272815 0.0 
-1.81486 2.66014 0.0 
0.375911 -0.403668 0.0 
-0.68323 0.487288 0.0 
-0.34187 -0.274923 0.0 
-0.293875 -0.201368 0.0 
1.61018 -1.767 0.0 
-0.448275 -0.347267 0.0 
-1.08687 0.352015 0.0 
1.29257 -1.76345 0.0 
1.67658 -1.49551 0.0 
1.19193 0.533009 0.0 
1.21582 -1.91654 0.0 
-0.36438 -0.346225 0.0 
-0.92534 0.330346 0.0 
2.3836 0.287756 0.0 
1.68841 0.639887 0.0 
1.59001 -1.89458 0.0 
1.14818 -1.92143 0.0 
1.28996 -2.19426 0.0 
1.37603 -1.8763 0.0 
1.23834 -2.09141 0.0 
1.11702 -2.06287 0.0 
0.691829 0.463808 0.0 
1.46523 -2.03459 0.0 
-0.123547 0.424486 0.0 
-1.3311 2.12174 0.0 
1.08169 -1.90074 0.0 
1.87975 -2.15971 0.0 
1.10131 -1.78593 0.0 
1.13722 0.534683 0.0 
1.42465 -1.59031 0.0 
-1.45435 2.47344 0.0 
1.41998 -1.98207 0.0 
0.463917 1.8787 0.0 
-1.72896 2.89571 0.0 
1.12419 -1.84975 0.0 
1.59054 -1.20634 0.0 
0.46124 0.621002 0.0 
0.806438 -1.00204 0.0 
2.1804 0.349761 0.0 
2.21142 -1.6418 0.0 
1.10152 -0.274558 0.0 
2.23388 0.387302 0.0 
0.137769 0.567007 0.0 
1.88736 0.267391 0.0 
1.26821 -1.94267 0.0 
0.21033 -0.605707 0.0 
2.61094 -1.50046 0.0 
0.819837 0.743337 0.0 
-1.4303 2.07799 0.0 
1.82013 0.322126 0.0 
-1.47649 2.2099 0.0 
1.15745 -0.274223 0.0 
-1.81198 2.24994 0.0 
2.34337 -1.67775 0.0 
-1.13329 1.37877 0.0 
-0.828215 1.05292 0.0 
2.46752 -1.53452 0.0 
-1.69915 2.18529 0.0 
-0.404416 -0.286271 0.0 
-1.23501 1.31766 0.0 
2.11757 -1.50659 0.0 
-1.08535 1.28274 0.0 
2.58548 -1.70783 0.0 
0.24729 -0.572345 0.0 
-1.66963 2.25319 0.0 
1.58322 -1.62308 0.0 
-0.367923 -0.306026 0.0 
0.391521 1.44485 0.0 
1.88977 -2.46319 0.0 
1.5943 -1.53613 0.0 
-0.357143 -0.23651 0.0 
0.82621 0.80563 0.0 
-1.59261 2.31884 0.0 
-0.47244 -0.307516 0.0 
-0.40334 -0.326688 0.0 
-2.00063 2.11543 0.0 
1.55514 -1.95078 0.0 
-1.40431 2.26352 0.0 
-0.0265928 0.573714 0.0 
1.17093 1.10579 0.0 
-1.77907 2.22111 0.0 
0.682788 0.329642 0.0 
-0.54475 2.15572 0.0 
-0.288592 0.289433 0.0 
-1.43199 2.16349 0.0 
-1.45029 2.25134 0.0 
1.5535 -1.79992 0.0 
-1.06406 1.08381 0.0 
1.72954 1.44966 0.0 
0.582806 0.515814 0.0 
0.582876 -0.679913 0.0 
1.32351 -0.355916 0.0 
-0.47505 0.577092 0.0 
-0.371167 0.227715 0.0 
1.52235 -1.8529 0.0 
-0.429822 -0.244811 0.0 
-0.53237 -0.24648 0.0 
-0.393983 -0.210364 0.0 
0.652895 0.317361 0.0 
1.55812 -1.70765 0.0 
1.63021 0.325622 0.0 
0.442731 0.358729 0.0 
1.22925 -1.85192 0.0 
1.43517 -1.79082 0.0 
1.39317 -1.6984 0.0 
1.62965 0.295952 0.0 
0.905462 0.793465 0.0 
1.04036 -1.64811 0.0 
2.1131 -1.72466 0.0 
-0.743911 0.369492 0.0 
1.14427 -1.99314 0.0 
1.26033 -2.0209 0.0 
-1.70955 2.07308 0.0 
0.910023 -1.62976 0.0 
-0.313059 -0.0954838 0.0 
-1.77334 2.3988 0.0 
-0.311958 -0.24042 0.0 
2.53315 0.325608 0.0 
-0.273728 -0.226719 0.0 
-0.646401 0.379627 0.0 
1.52426 0.616074 0.0 
2.21703 -1.79499 0.0 
2.71108 0.312216 0.0 
0.759924 1.093 0.0 
-1.69271 2.12368 0.0 
0.255794 0.540969 0.0 
0.0534699 0.562158 0.0 
-1.5679 2.22408 0.0 
-1.66906 2.45165 0.0 
-1.51895 2.09449 0.0 
2.16948 0.408238 0.0 
-0.818806 0.680638 0.0 
-0.826868 0.642087 0.0 
0.519855 0.276992 0.0 
-0.716682 1.18602 0.0 
-0.649974 -0.148775 0.0 
0.457368 0.256619 0.0 
0.517407 0.248194 0.0 
0.327129 0.39802 0.0 
0.533249 -0.878832 0.0 
-0.870735 0.634904 0.0 
1.19219 1.07557 0.0 
2.35922 0.366028 0.0 
-1.66911 3.66723 0.0 
-0.857603 1.54934 0.0 
-0.379189 2.30131 0.0 
-0.941007 1.36523 0.0 
-1.58662 2.49682 0.0 
-0.545297 0.352587 0.0 
0.327944 -0.744683 0.0 
-0.312756 0.524741 0.0 
-0.107843 0.506233 0.0 
2.13378 -2.36584 0.0 
1.52689 0.686953 0.0 
-0.119983 0.327909 0.0 
1.02161 -1.53072 0.0 
1.51507 0.39695 0.0 
-0.674484 1.02605 0.0 
-0.564724 -0.148435 0.0 
0.409388 0.290913 0.0 
0.252349 0.30842 0.0 
-1.09282 1.45998 0.0 
1.45674 -1.54484 0.0 
-0.266777 0.782169 0.0 
0.91327 -0.874389 0.0 
1.01208 1.13309 0.0 
-0.897136 1.35063 0.0 
-0.846484 0.489353 0.0 
1.47563 0.663768 0.0 
-1.22282 2.05021 0.0 
0.348906 0.416714 0.0 
1.41913 0.964648 0.0 
0.933289 -0.839038 0.0 
-1.85066 1.40221 0.0 
0.142477 1.99435 0.0 
-0.717809 0.341194 0.0 
-2.21177 1.41584 0.0 
0.396571 0.350929 0.0 
1.25171 -1.60721 0.0 
0.736798 0.393502 0.0 
-0.661427 0.19031 0.0 
2.18751 -2.32769 0.0 
-1.00908 1.6747 0.0 
2.21416 -2.07269 0.0 
-0.779194 0.642011 0.0 
-1.02312 1.3939 0.0 
2.08809 -2.24876 0.0 
-5 -4.48794 0.0 
1.61792 -1.46215 0.0 
-0.974627 1.38947 0.0 
1.81166 -2.48446 0.0 
-1.03635 1.47474 0.0 
0.869004 -1.74424 0.0 
0.956579 -1.78598 0.0 
1.07495 0.540689 0.0 
-1.08005 1.37763 0.0 
0.914755 -0.803058 0.0 
0.611759 -0.305322 0.0 
1.70043 -1.41356 0.0 
0.75708 -0.631542 0.0 
1.21215 1.01979 0.0 
-0.586902 0.440014 0.0 
1.9251 -2.56336 0.0 
-1.58261 1.91091 0.0 
-0.746541 1.26087 0.0 
-1.49915 1.13657 0.0 
-1.46675 0.971536 0.0 
-1.05881 0.930935 0.0 
0.71826 0.415078 0.0 
-0.701697 0.526982 0.0 
-1.56194 2.05157 0.0 
1.15988 0.991244 0.0 
1.38676 0.949615 0.0 
-1.61697 2.02689 0.0 
1.13748 -0.357331 0.0 
-1.8456 2.04561 0.0 
0.253686 -0.756334 0.0 
-1.53603 1.86509 0.0 
-1.43465 0.924137 0.0 
-1.00273 1.27416 0.0 
-1.03063 1.5132 0.0 
-1.32483 1.94769 0.0 
-0.965552 1.61445 0.0 
-0.239859 -0.245939 0.0 
-5 3.01776 0.0 
-5 -0.248741 0.0 
0.517491 1.87079 0.0 
-1.18776 1.8875 0.0 
2.27458 0.36201 0.0 
1.9794 0.331487 0.0 
0.503086 0.510306 0.0 
1.26387 -0.370702 0.0 
1.24483 0.550197 0.0 
1.12871 0.979556 0.0 
-1.48659 1.83259 0.0 
1.0672 0.958366 0.0 
-1.16856 1.61214 0.0 
-0.218637 -0.230696 0.0 
-5 1.81431 0.0 
1.37014 1.04658 0.0 
0.0950623 0.557621 0.0 
-1.23613 1.67303 0.0 
0.953731 -0.709843 0.0 
2.07568 -1.85385 0.0 
2.10836 -1.82014 0.0 
-0.994952 1.33552 0.0 
-1.86986 1.52312 0.0 
0.515812 0.447542 0.0 
0.842446 0.992035 0.0 
-1.42353 1.8223 0.0 
2.091 0.354014 0.0 
-0.937663 0.401428 0.0 
-1.69305 1.41997 0.0 
-1.82465 1.55127 0.0 
2.15192 0.384657 0.0 
-1.17972 1.37998 0.0 
-0.718866 -0.0130647 0.0 
-0.927867 0.290435 0.0 
1.56509 0.300406 0.0 
-5 -3.04052 0.0 
9.98027 -7 0.0 
0.176009 0.694641 0.0 
0.597997 -0.559941 0.0 
-0.546583 0.4849 0.0 
0.602022 -0.657834 0.0 
2.17737 0.379672 0.0 
1.89809 0.287017 0.0 
-1.58883 1.35796 0.0 
-1.2284 1.37063 0.0 
-1.43937 1.35342 0.0 
-1.59664 1.47263 0.0 
0.577431 -0.368705 0.0 
1.5263 -1.51093 0.0 
0.479666 0.796509 0.0 
0.894995 1.01463 0.0 
2.22312 0.363016 0.0 
-0.320562 0.726481 0.0 
-1.30188 2.41386 0.0 
0.43802 0.434693 0.0 
-0.761697 0.762024 0.0 
1.45688 -1.49591 0.0 
-0.65072 0.676835 0.0 
1.6097 -1.41509 0.0 
2.25768 0.399237 0.0 
1.85518 0.299709 0.0 
2.14618 0.290757 0.0 
2.25222 0.371677 0.0 
-1.93063 2.91367 0.0 
1.52717 0.319618 0.0 
1.67964 -1.62237 0.0 
1.35962 -0.439169 0.0 
1.63007 -1.54335 0.0 
-5 -0.764504 0.0 
-1.61377 2.62271 0.0 
1.73865 -1.57725 0.0 
-0.908306 1.23669 0.0 
1.60766 0.330292 0.0 
1.82509 -1.63054 0.0 
1.90521 0.312457 0.0 
1.98719 -1.6488 0.0 
-0.528791 0.39225 0.0 
1.94978 -2.39003 0.0 
-0.472559 0.718465 0.0 
-1.28058 2.26572 0.0 
0.881581 -0.556282 0.0 
2.26369 0.42542 0.0 
0.917309 -1.69962 0.0 
0.853954 -1.60945 0.0 
1.30086 -0.404316 0.0 
1.99565 -2.46852 0.0 
1.49445 -1.47573 0.0 
1.68285 0.863315 0.0 
2.03074 -2.37549 0.0 
2.52279 -0.506167 0.0 
2.56049 -1.76899 0.0 
-1.52889 2.56597 0.0 
2.81136 -0.570221 0.0 
1.3688 -1.46095 0.0 
1.29524 -0.373946 0.0 
-0.350504 0.671928 0.0 
-0.590282 0.564035 0.0 
-0.054366 2.16706 0.0 
1.50819 1.22548 0.0 
-0.548222 0.453941 0.0 
2.19936 -2.5207 0.0 
12.2704 -7 0.0 
1.6811 -1.36761 0.0 
-0.449261 0.559535 0.0 
0.537017 -0.527614 0.0 
-0.00733391 0.553304 0.0 
0.494109 -0.356396 0.0 
-0.7939 0.0827441 0.0 
0.39888 0.467333 0.0 
-1.04288 1.34095 0.0 
0.605019 1.02824 0.0 
0.847559 0.374727 0.0 
1.00336 0.618307 0.0 
2.1955 0.399186 0.0 
0.656973 0.401158 0.0 
-0.998431 2.73564 0.0 
[...]
<PointData>
  <DataArray type = "Float64" Name="VitesseP1" NumberOfComponents="3" format="ascii">
1 0 0.0 
1.06057 0 0.0 
1.01762 0 0.0 
1 0 0.0 
0.99446 0.0161065 0.0 
0.99682 0.0113924 0.0 
0.995365 0.0138952 0.0 
1.03625 -0.00579341 0.0 
1.03678 -0.00917975 0.0 
1.03987 -0.00879334 0.0 
0.997674 0.0123391 0.0 
0.985749 0.0726883 0.0 
0.996508 0.0117258 0.0 
0.996716 0.012529 0.0 
0.998853 0.0123455 0.0 
0.992171 0.217384 0.0 
1.01817 0.0545787 0.0 
1.05171 -0.0252737 0.0 
0.998781 0.0117558 0.0 
0.994891 0.0148269 0.0 
1.05487 -0.0260592 0.0 
0.998735 0.0137263 0.0 
1.15718 -0.0211039 0.0 
1.04913 0.0108948 0.0 
1.05936 -0.000406773 0.0 
0.998688 0.0133144 0.0 
0.944317 0.0088079 0.0 
1.06007 -0.0209719 0.0 
0.0753485 0.0262487 0.0 
0.988444 0.0317352 0.0 
1.13942 0.0642448 0.0 
1.10907 0.140188 0.0 
0.998743 0.0127111 0.0 
1.02848 -0.0217201 0.0 
0.941164 0.0123838 0.0 
1.00517 0.0310677 0.0 
0.936897 -0.0511499 0.0 
1.08005 0.00030317 0.0 
1.052 0.00964958 0.0 
1.0513 -0.014035 0.0 
1.05369 -0.00398186 0.0 
0.92671 0.15125 0.0 
1.07124 -0.00908661 0.0 
1.12162 0.00460028 0.0 
1.06447 0.00671738 0.0 
1.06024 -0.0128097 0.0 
1.05622 0.0323768 0.0 
1.05192 0.0239923 0.0 
1.19407 0.0158303 0.0 
0.939351 0.035667 0.0 
1.03607 -0.00534906 0.0 
1.0025 0.0127727 0.0 
0.999636 0.0179612 0.0 
1.0356 -0.00723581 0.0 
1.03772 0.242153 0.0 
0.0556225 0.0220572 0.0 
1.03648 -0.00490414 0.0 
1.00272 0.0131851 0.0 
0.998941 0.0160184 0.0 
1.195 -0.0338587 0.0 
0.271949 -0.0422923 0.0 
1.00232 0.0134455 0.0 
1.0861 0.0603643 0.0 
1.12154 0.118294 0.0 
0.626445 -0.00271089 0.0 
1.0585 -0.0258483 0.0 
1.1329 -0.0256914 0.0 
0.559748 0.134325 0.0 
0.86261 0.085295 0.0 
1.2038 -0.0413428 0.0 
1.19808 -0.0324486 0.0 
1.06339 -0.0106619 0.0 
0.998888 0.0144772 0.0 
1 0 0.0 
0.458646 -0.0381482 0.0 
1.00209 0.0130087 0.0 
0.967972 0.0107367 0.0 
0.998912 0.0148331 0.0 
1.00173 0.012164 0.0 
1.16843 0.0285803 0.0 
1.03589 0.0182411 0.0 
0.765473 -0.0389575 0.0 
0.95006 0.262379 0.0 
1.17237 0.111159 0.0 
0.945965 0.0143355 0.0 
0.969789 0.00903898 0.0 
1.00201 0.012605 0.0 
1.05957 -0.0240678 0.0 
1.14171 0.0940906 0.0 
0.998975 0.0151861 0.0 
1.04162 0.0228034 0.0 
1.04639 -0.0145662 0.0 
1.09413 0.0777661 0.0 
0.935298 0.0699736 0.0 
1.12398 0.122396 0.0 
0.999714 0.013282 0.0 
1.00227 0.0113891 0.0 
0.121684 -0.146203 0.0 
0.999065 0.0144247 0.0 
1.19229 -0.23367 0.0 
0.943871 0.0230839 0.0 
0.918791 -0.0882054 0.0 
0.91578 -0.0743557 0.0 
1.04998 -0.00427531 0.0 
0.924239 -0.0781046 0.0 
0.96695 -0.00802557 0.0 
1.04644 -0.0163966 0.0 
1.06484 -0.00246752 0.0 
1.19636 0.0772806 0.0 
1.03839 -0.0162617 0.0 
0.919979 -0.0884277 0.0 
0.954609 -0.00351419 0.0 
0.175326 -0.0203421 0.0 
1.19992 0.0230338 0.0 
1.04359 -0.00437653 0.0 
1.03703 -0.0180269 0.0 
1.03407 -0.010136 0.0 
1.04255 -0.0117903 0.0 
1.03344 -0.0130352 0.0 
1.03163 -0.01726 0.0 
1.16455 0.181662 0.0 
1.03674 -0.00735143 0.0 
0.877151 0.125762 0.0 
0.998911 0.0214448 0.0 
1.03656 -0.0202739 0.0 
1.03579 0.00447927 0.0 
1.04143 -0.0223402 0.0 
1.19575 0.0852594 0.0 
1.06033 -0.0139349 0.0 
0.999878 0.0185987 0.0 
1.03785 -0.00920692 0.0 
1.02695 0.0480571 0.0 
1.0006 0.0143571 0.0 
1.03937 -0.0202127 0.0 
1.05522 -0.00892576 0.0 
1.08726 0.187603 0.0 
1.06753 -0.071537 0.0 
0.30283 0.0018995 0.0 
1.05386 0.0212173 0.0 
0.46038 -0.0378635 0.0 
0.517759 -0.0250751 0.0 
0.977513 0.1959 0.0 
0.0852227 0.023207 0.0 
1.03787 -0.0143044 0.0 
1.03059 -0.159821 0.0 
1.04342 0.0465813 0.0 
1.13821 0.117756 0.0 
0.99864 0.0200277 0.0 
0.12478 0.0216817 0.0 
0.998789 0.0191105 0.0 
0.413947 -0.0164286 0.0 
0.998643 0.0150791 0.0 
1.04746 0.0251344 0.0 
0.984909 0.0249108 0.0 
0.973181 0.0346088 0.0 
1.05051 0.0359945 0.0 
0.998466 0.0163403 0.0 
0.922747 -0.0793526 0.0 
0.983939 0.0213035 0.0 
1.06186 0.0197712 0.0 
0.981328 0.0257421 0.0 
1.03354 0.0301766 0.0 
1.04001 -0.170291 0.0 
0.998742 0.0166444 0.0 
1.05937 -0.00634268 0.0 
0.920148 -0.0857138 0.0 
1.03228 0.0697273 0.0 
1.03974 0.000528973 0.0 
1.06436 -0.00642995 0.0 
0.916497 -0.0815425 0.0 
1.13132 0.109749 0.0 
0.999043 0.0174486 0.0 
0.927584 -0.0725481 0.0 
0.922131 -0.0824104 0.0 
0.998541 0.0130945 0.0 
1.04036 -0.00528557 0.0 
0.999275 0.0199596 0.0 
0.938763 0.151177 0.0 
1.12621 0.0460911 0.0 
0.998583 0.0154391 0.0 
0.638092 0.109959 0.0 
1.00576 0.0352106 0.0 
0.863183 0.04533 0.0 
0.99875 0.0198314 0.0 
0.999087 0.0193671 0.0 
1.04777 -0.00626737 0.0 
0.973696 0.024182 0.0 
1.06672 -0.0333338 0.0 
1.1414 0.197682 0.0 
1.10856 -0.12744 0.0 
0.884907 -0.0266207 0.0 
0.938016 0.0518704 0.0 
0.874886 0.0163564 0.0 
1.04509 -0.00700799 0.0 
0.924045 -0.0729315 0.0 
0.933135 -0.0624132 0.0 
0.918847 -0.0740934 0.0 
0.584952 0.110368 0.0 
1.05321 -0.00679229 0.0 
0.102828 0.0124148 0.0 
1.03825 0.263998 0.0 
1.04134 -0.0169718 0.0 
1.04717 -0.0107731 0.0 
1.05201 -0.0136524 0.0 
0.0804568 0.00770254 0.0 
1.14113 0.100898 0.0 
1.0472 -0.0280446 0.0 
1.05007 0.0158184 0.0 
0.941205 0.00863902 0.0 
1.03365 -0.0171103 0.0 
1.03471 -0.0133684 0.0 
0.99863 0.0162073 0.0 
1.04412 -0.0329011 0.0 
0.898836 -0.0654556 0.0 
0.99891 0.0153487 0.0 
0.909752 -0.0855621 0.0 
0.345188 -0.0814441 0.0 
0.887945 -0.083744 0.0 
0.932407 0.0161265 0.0 
1.19852 0.0375173 0.0 
1.04498 0.0183378 0.0 
0.398651 -0.10002 0.0 
1.09392 0.0854643 0.0 
0.998429 0.0164184 0.0 
1.0189 0.222168 0.0 
0.951341 0.176802 0.0 
0.998732 0.0179023 0.0 
0.999173 0.016316 0.0 
0.998617 0.018716 0.0 
0.640877 -0.0173332 0.0 
0.967552 0.0251983 0.0 
0.965243 0.0227019 0.0 
0.415906 0.1356 0.0 
0.976101 0.041088 0.0 
0.94029 -0.0442603 0.0 
0.302559 0.10152 0.0 
0.376245 0.184401 0.0 
1.0636 0.295941 0.0 
1.0689 -0.101634 0.0 
0.967009 0.0196294 0.0 
1.13388 0.0460805 0.0 
0.452682 -0.0435172 0.0 
1.00054 0.0121045 0.0 
0.990028 0.0340824 0.0 
1.00931 0.0357713 0.0 
0.983455 0.0313679 0.0 
0.999469 0.0170659 0.0 
0.918531 0.0213474 0.0 
1.05845 -0.130551 0.0 
0.918781 0.0755382 0.0 
0.908538 0.131696 0.0 
1.03895 0.0138946 0.0 
1.18928 0.0347665 0.0 
0.829746 0.116489 0.0 
1.05363 -0.0324636 0.0 
0.592543 0.0196322 0.0 
0.97553 0.0436518 0.0 
0.932686 -0.0501708 0.0 
0.703442 0.194347 0.0 
0.899829 0.338569 0.0 
0.987008 0.0265956 0.0 
1.06283 -0.012949 0.0 
0.967015 0.0861262 0.0 
1.11216 -0.0744208 0.0 
1.10759 0.060014 0.0 
0.982818 0.0330135 0.0 
0.95609 0.012174 0.0 
1.19016 0.040424 0.0 
0.998999 0.0234677 0.0 
1.07777 0.282875 0.0 
1.16142 0.0312071 0.0 
1.12253 -0.0753005 0.0 
0.993974 0.0103799 0.0 
1.01676 0.0471698 0.0 
0.937213 0.00752524 0.0 
0.997166 0.00869084 0.0 
1.0192 0.283424 0.0 
1.05566 -0.0210538 0.0 
1.00422 0.149611 0.0 
0.924979 -0.00653532 0.0 
1.03338 0.0273494 0.0 
0.992546 0.0291409 0.0 
1.03451 0.0150787 0.0 
0.962653 0.0258776 0.0 
0.984711 0.0285777 0.0 
1.03215 0.00757019 0.0 
1 0 0.0 
1.06414 -0.00563183 0.0 
0.984417 0.0302255 0.0 
1.03881 0.000195263 0.0 
0.987284 0.0283883 0.0 
1.03665 -0.0302015 0.0 
1.03771 -0.0266358 0.0 
1.19284 0.094886 0.0 
0.984523 0.0265999 0.0 
1.12822 -0.0798911 0.0 
0.91573 -0.145735 0.0 
1.06236 -0.0014101 0.0 
1.12741 -0.112763 0.0 
1.14282 0.0480418 0.0 
0.931141 0.0273468 0.0 
1.03758 0.00444414 0.0 
0.995796 0.0175928 0.0 
0.979357 0.0394861 0.0 
0.983876 0.0113736 0.0 
0.995486 0.0106378 0.0 
0.990065 0.021484 0.0 
1.09208 0.166091 0.0 
0.948416 0.0246337 0.0 
0.998604 0.0180761 0.0 
1.14199 0.055589 0.0 
1.16046 0.0351078 0.0 
0.998355 0.0173095 0.0 
0.939431 -0.0548839 0.0 
0.999016 0.01457 0.0 
1.0427 -0.127455 0.0 
0.994876 0.0181866 0.0 
1.00026 0.0112972 0.0 
0.98044 0.0286249 0.0 
0.988539 0.028642 0.0 
0.996399 0.021821 0.0 
0.991608 0.0305174 0.0 
0.882266 -0.105532 0.0 
1 0 0.0 
1 0 0.0 
1.02872 0.047403 0.0 
0.995023 0.0244824 0.0 
0.391436 -0.0247221 0.0 
0.168427 0.0228864 0.0 
1.11699 0.215296 0.0 
0.969688 -0.0411984 0.0 
1.19979 0.07044 0.0 
1.14079 0.059772 0.0 
0.994295 0.0188964 0.0 
1.13806 0.0680056 0.0 
0.991596 0.024963 0.0 
0.948564 -0.163972 0.0 
1 0 0.0 
1.15145 0.0299733 0.0 
0.961659 0.189342 0.0 
0.992557 0.0234786 0.0 
1.14303 -0.0826141 0.0 
1.04399 0.0128752 0.0 
1.04525 0.0144001 0.0 
0.98255 0.029305 0.0 
0.99526 0.011642 0.0 
1.12897 0.230597 0.0 
1.11614 0.088582 0.0 
0.994034 0.0199558 0.0 
0.285633 0.00978624 0.0 
0.958298 0.00127619 0.0 
0.991972 0.0124352 0.0 
0.995185 0.0123613 0.0 
0.465989 -0.00614394 0.0 
0.985271 0.0235208 0.0 
0.94878 -0.0291592 0.0 
0.953379 -0.00672449 0.0 
0.0947171 0.00102302 0.0 
1 0 0.0 
1.05254 0 0.0 
1.0076 0.16537 0.0 
1.11948 -0.144518 0.0 
0.931899 0.0358113 0.0 
1.11257 -0.128685 0.0 
0.445571 -0.00906582 0.0 
0.097201 0.0230703 0.0 
0.989487 0.013161 0.0 
0.985418 0.0220326 0.0 
0.987254 0.0163105 0.0 
0.99152 0.0146107 0.0 
1.11031 -0.172314 0.0 
1.06393 -0.00996149 0.0 
1.07909 0.145562 0.0 
1.11878 0.0813943 0.0 
0.377589 -0.0121956 0.0 
0.956575 0.0790175 0.0 
1.00038 0.0207021 0.0 
1.11175 0.255784 0.0 
0.972211 0.0326132 0.0 
1.06318 -0.0136526 0.0 
0.959216 0.0378875 0.0 
1.06216 -0.00640966 0.0 
0.605918 -0.0344444 0.0 
0.102064 0.0215988 0.0 
0.0950234 0.029188 0.0 
0.43378 -0.0226867 0.0 
0.999745 0.012706 0.0 
0.0764556 0.00295831 0.0 
1.05987 -0.00197647 0.0 
1.1665 -0.0373138 0.0 
1.0644 -0.00465321 0.0 
1 0 0.0 
0.999583 0.0163793 0.0 
1.06323 0.000737871 0.0 
0.978802 0.0321918 0.0 
0.105968 0.0123832 0.0 
1.05936 0.0046327 0.0 
0.123235 0.0200017 0.0 
1.05695 0.0116803 0.0 
0.920227 0.0280103 0.0 
1.03539 0.00186432 0.0 
0.957254 0.0582233 0.0 
0.999745 0.0216849 0.0 
1.19419 -0.10733 0.0 
0.800101 -0.0431563 0.0 
1.04047 -0.0303093 0.0 
1.04328 -0.0352804 0.0 
1.07654 -0.0398602 0.0 
1.04584 0.01001 0.0 
1.06342 -0.0119824 0.0 
1.18194 0.0118036 0.0 
1.03502 0.0127122 0.0 
1.23489 0.0846129 0.0 
1.03461 0.0251866 0.0 
0.999783 0.0174347 0.0 
1.15913 0.10968 0.0 
1.06129 -0.0185917 0.0 
0.983142 -0.0411017 0.0 
0.947657 0.073993 0.0 
0.944128 0.0373321 0.0 
1.01399 0.0431896 0.0 
1.12582 -0.00341168 0.0 
0.928798 0.0326654 0.0 
1.01587 -0.00131282 0.0 
1.04652 0 0.0 
1.05922 -0.0025555 0.0 
0.933742 0.0543428 0.0 
1.13911 -0.162221 0.0 
0.935575 0.160124 0.0 
1.10453 -0.194029 0.0 
0.952792 -0.0199005 0.0 
1.08786 0.249709 0.0 
0.983032 0.0276125 0.0 
1.08599 0.10328 0.0 
0.796696 0.0999308 0.0 
1.17481 0.10194 0.0 
0.58368 -0.0202644 0.0 
1.0784 0.184583 0.0 
1.00385 0.0218066 0.0 
1.05646 0.0142772 0.0 
1.04172 0.00764064 0.0 
1.05037 -0.00134861 0.0 
1.04787 -0.000375294 0.0 
0.150918 0.0197363 0.0 
1.03985 0.00123188 0.0 
0.0912324 0.0223681 0.0 
1.14166 -0.093962 0.0 
1.00379 0.0356084 0.0 
1.04436 0.00826906 0.0 
1 0 0.0 
0.983026 0.0264466 0.0 
1.19318 0.0906175 0.0 
0.91808 -0.0933154 0.0 
0.99944 0.0158126 0.0 
0.991458 0.0392812 0.0 
1.05229 0.00930557 0.0 
1.05621 0.00479347 0.0 
0.939817 0.188721 0.0 
0.785715 0.129534 0.0 
1.00408 0.0188615 0.0 
1.16509 0.141249 0.0 
0.999922 0.242717 0.0 
0.998963 0.0123892 0.0 
0.986034 0.0292299 0.0 
1.05394 0.000766587 0.0 
0.937764 0.124469 0.0 
0.281142 -0.0585374 0.0 
1.05299 0.00279902 0.0 
0.17525 0.0988368 0.0 
1.05326 -0.00122641 0.0 
1.11295 -0.0501599 0.0 
1.01502 0.0483934 0.0 
1.15648 -0.0991351 0.0 
1.04932 0.00170293 0.0 
0.956888 -0.00612183 0.0 
0.37426 0.0125985 0.0 
1.0605 -0.0220521 0.0 
0.94645 -0.00132498 0.0 
0.99964 0.0155099 0.0 
1.05797 -0.0267334 0.0 
0.941708 0.0657165 0.0 
1.19385 -0.0404316 0.0 
0.389024 -0.0837963 0.0 
0.735092 -0.0499408 0.0 
0.940981 -0.00450094 0.0 
0.964693 0.271918 0.0 
0.253255 0.047583 0.0 
0.997205 0.315468 0.0 
1.0475 -0.0349618 0.0 
1.07685 -0.0408628 0.0 
0.80165 -0.0103528 0.0 
0.358938 0.116328 0.0 
1.09939 0.068258 0.0 
0.998586 0.0124743 0.0 
0.63622 -0.00492035 0.0 
0.257778 -0.0418139 0.0 
0.914887 -0.0433113 0.0 
0.901187 -0.0669068 0.0 
1.0288 0.0419557 0.0 
0.998691 0.0120407 0.0 
1.02608 -0.0973318 0.0 
1.12243 -0.0284391 0.0 
1.16679 0.0176686 0.0 
0.106939 0.0218715 0.0 
0.936397 -0.057471 0.0 
1.03341 0.0355829 0.0 
1.06315 -0.00762466 0.0 
0.938007 -0.00888232 0.0 
0.169745 0.0192252 0.0 
0.998698 0.0129848 0.0 
1.1666 0.022248 0.0 
1.05735 -0.0261437 0.0 
0.9638 0.215673 0.0 
1.04886 0.00935834 0.0 
1.06411 0.000393479 0.0 
1.0639 0.00498608 0.0 
0.954458 0.0376404 0.0 
1.05893 -0.023975 0.0 
0.99881 0.0141903 0.0 
0.952124 0.00715439 0.0 
1.14572 -0.0272271 0.0 
1.0498 0.0203241 0.0 
0.989241 0.0074957 0.0 
0.953331 0.015411 0.0 
0.998845 0.0143836 0.0 
1.05438 0.00567147 0.0 
1.04115 -0.0031422 0.0 
1.05928 -0.021352 0.0 
0.990406 0.0091551 0.0 
1.01939 0.0415547 0.0 
0.998828 0.0135836 0.0 
1.04843 -0.025987 0.0 
1.06009 0.0186507 0.0 
0.0794842 0.0287916 0.0 
0.0768498 0.0300996 0.0 
1.06347 0.0145798 0.0 
0.905703 -0.0563562 0.0 
0.900549 -0.0447681 0.0 
0.885831 0.118664 0.0 
0.999266 0.0143527 0.0 
0.998755 0.014284 0.0 
0.962647 -0.01312 0.0 
0.964875 -0.00187728 0.0 
1.03417 0.0213095 0.0 
0.963829 0.234539 0.0 
1.06671 0.151062 0.0 
1.02711 -0.0449465 0.0 
0.0939246 0.0275123 0.0 
1.15465 0.0193724 0.0 
1.07026 0.140321 0.0 
0.998627 0.013785 0.0 
1.01539 0.0323409 0.0 
1.10537 -0.0082947 0.0 
0.982829 0.0210953 0.0 
0.934413 0.0464895 0.0 
1.03422 -0.0281352 0.0 
0.973331 0.0374987 0.0 
0.941095 0.108917 0.0 
0.934079 0.0589896 0.0 
0.955729 -0.0893676 0.0 
0.962792 0.00721856 0.0 
0.800306 -0.0461529 0.0 
1.00083 0.0186297 0.0 
1.02868 0.0438512 0.0 
0.953663 -0.0101001 0.0 
0.96145 -0.000925286 0.0 
0.922541 0.0342726 0.0 
1.10187 0.247978 0.0 
0.972279 0.00619771 0.0 
0.94337 0.291422 0.0 
0.945328 0.0328692 0.0 
0.975252 0.22603 0.0 
0.850861 0.285735 0.0 
0.995129 0.00771614 0.0 
1.0023 0 0.0 
0.998764 0.012417 0.0 
0.977221 0.00167118 0.0 
0.89809 0.152862 0.0 
0.141179 0.00790348 0.0 
1.01016 0.0443391 0.0 
0.980741 0.00729165 0.0 
0.99936 0.0128173 0.0 
0.916071 -0.071759 0.0 
0.916558 0.0330624 0.0 
1.20197 -0.0278863 0.0 
0.998627 0.0127031 0.0 
0.983557 0.0770366 0.0 
0.898418 -0.13049 0.0 
1.03555 -0.0228991 0.0 
0.936136 0.0637151 0.0 
0.995163 0.0165235 0.0 
0.944358 0.0276329 0.0 
0.990913 0.0203406 0.0 
0.0951202 0.0271408 0.0 
0.893567 -0.122842 0.0 
1.03638 -0.00639619 0.0 
1.14254 0.0847642 0.0 
1.17703 -0.0729101 0.0 
0.997667 0.0109414 0.0 
0.98202 0.0188301 0.0 
1.00637 0.20115 0.0 
1.11383 0.15621 0.0 
0.587637 0.0949617 0.0 
0.951114 0.188875 0.0 
0.9814 0.0191923 0.0 
0.437221 -0.0947341 0.0 
0.982368 0.0221326 0.0 
0.997223 0.0130327 0.0 
1.00018 0.0200591 0.0 
0.390303 -0.0792119 0.0 
0.328889 -0.0724751 0.0 
0.981501 0.0304022 0.0 
0.341535 0.0577755 0.0 
1.19168 0.0862599 0.0 
1.00942 0.0437738 0.0 
0.980645 0.0326583 0.0 
0.999557 0.0199427 0.0 
0.9779 0.0113718 0.0 
0.930233 0.068753 0.0 
0.976581 0.0258891 0.0 
0.852209 0.285011 0.0 
0.644588 -0.0809259 0.0 
0.346768 -0.0827044 0.0 
0.96815 0.0136373 0.0 
0.974767 0.0122731 0.0 
1.05431 0.203978 0.0 
0.465468 -0.0840845 0.0 
0.939786 0.0210948 0.0 
1.03743 -0.0369409 0.0 
0.983139 0.245441 0.0 
0.999121 0.0139834 0.0 
0.92248 0.0818415 0.0 
0.972154 0.0312295 0.0 
0.930089 0.143195 0.0 
0.962839 0.155176 0.0 
1.009 0.254757 0.0 
0.844919 -0.072064 0.0 
0.937473 -0.0522172 0.0 
1.10638 0.0599465 0.0 
0.471996 0.0933756 0.0 
0.926637 -0.0595465 0.0 
0.219566 -0.0141248 0.0 
0.899203 -0.0127834 0.0 
0.752746 0.135389 0.0 
0.915403 -0.0663276 0.0 
0.922461 -0.0560423 0.0 
0.617073 0.16503 0.0 
1.04875 0.00646281 0.0 
0.940868 0.173222 0.0 
0.879767 -0.00484815 0.0 
0.928557 -0.0536171 0.0 
1.03522 -0.00805788 0.0 
0.343469 0.0413397 0.0 
1.03441 -0.0102973 0.0 
0.866128 0.00746975 0.0 
0.899425 0.21691 0.0 
1.04068 -0.000794328 0.0 
0.906995 -0.0879895 0.0 
0.924243 0.182118 0.0 
0.44133 -0.0900125 0.0 
1.11972 0.0631425 0.0 
1.0371 0.168912 0.0 
0.831941 0.380741 0.0 
1.10177 0.163669 0.0 
1.06502 0.259081 0.0 
1.07219 -0.0924806 0.0 
0.860497 -0.143017 0.0 
0.977691 0.0334841 0.0 
0.528815 0.0612743 0.0 
0.918735 -0.0525451 0.0 
1.03773 0.0647483 0.0 
0.31661 -0.0139831 0.0 
1.04407 0.263082 0.0 
1.05144 0.038694 0.0 
0.878999 0.10528 0.0 
1.00492 0.0223292 0.0 
0.89273 0.0669915 0.0 
0.260868 -0.00286211 0.0 
0.853301 0.0764246 0.0 
0.949365 0.0369828 0.0 
0.947212 0.00400713 0.0 
1.17034 -0.0342742 0.0 
0.764173 0.335255 0.0 
0.847663 0.0891326 0.0 
1.02709 0.0730527 0.0 
1.08182 -0.0940415 0.0 
0.921404 -0.046778 0.0 
1.04074 0.271302 0.0 
0.964673 0.0170252 0.0 
0.99532 0.0407206 0.0 
0.91022 0.077053 0.0 
0.924524 0.112619 0.0 
0.910629 0.0355017 0.0 
1.00896 0.028181 0.0 
0.919768 0.105946 0.0 
0.917471 0.220671 0.0 
0.999056 0.0130586 0.0 
1.09111 -0.0690433 0.0 
0.455194 -0.0965316 0.0 
1.05484 0.250378 0.0 
0.966147 0.202767 0.0 
0.807139 0.15122 0.0 
0.827031 0.0382404 0.0 
0.886261 0.0299073 0.0 
1.04243 0.304783 0.0 
0.999432 0.0177695 0.0 
1.12414 0.13827 0.0 
1.03313 0.225881 0.0 
0.886837 -0.0482555 0.0 
0.922871 -0.00181322 0.0 
0.858409 0.158357 0.0 
0.91089 0.0207467 0.0 
0.885163 0.0149294 0.0 
0.932603 -0.0459369 0.0 
0.93419 0.207058 0.0 
0.995403 0.0307894 0.0 
0.999422 0.0152722 0.0 
0.21828 -0.00354101 0.0 
0.193563 0.00451969 0.0 
0.912851 0.0278542 0.0 
0.528235 0.153663 0.0 
1.03467 -0.00920903 0.0 
0.921916 -0.0162679 0.0 
0.977916 -0.000819594 0.0 
0.902584 0.0765189 0.0 
0.842004 0.00679648 0.0 
1.0809 -0.0654983 0.0 
0.954955 0.0081156 0.0 
0.975471 0.00927882 0.0 
1.08444 0.267045 0.0 
0.368528 -0.0724095 0.0 
0.930785 0.300037 0.0 
0.972924 0.00279568 0.0 
0.988367 0.0544445 0.0 
1.06893 -0.22866 0.0 
0.968894 0.00483389 0.0 
0.961638 0.0127029 0.0 
0.997634 0.0135966 0.0 
1.03519 -0.00983656 0.0 
0.803163 0.107414 0.0 
0.904412 0.0184812 0.0 
0.99091 0.00563992 0.0 
1.02851 -0.182033 0.0 
0.995046 0.0157909 0.0 
0.935411 0.0242272 0.0 
0.813793 0.167723 0.0 
0.949865 -0.00835074 0.0 
0.99808 0.0104168 0.0 
0.938636 0.00484578 0.0 
0.189372 0.128461 0.0 
0.943753 -0.00825533 0.0 
1.06129 -0.00881209 0.0 
0.954082 0.288427 0.0 
0.149054 0.023705 0.0 
1.10166 0.254221 0.0 
0.987999 0.0150898 0.0 
1.01567 -0.166701 0.0 
0.968776 0.00199459 0.0 
0.959537 0.00928759 0.0 
0.959771 0.00468453 0.0 
0.545055 0.134896 0.0 
0.961804 0.0020025 0.0 
0.955856 -0.0134372 0.0 
0.654193 0.184107 0.0 
1.03229 -0.0136177 0.0 
1.03191 0.0463714 0.0 
0.99814 0.26545 0.0 
0.980834 0.0211116 0.0 
0.975213 0.0292945 0.0 
0.964587 0.00408515 0.0 
0.893451 0.0129978 0.0 
0.958797 -0.0177425 0.0 
0.121704 0.000860585 0.0 
0.968627 -7.52568e-05 0.0 
1.05513 0.0169737 0.0 
0.876264 0.167906 0.0 
0.996414 0.0123519 0.0 
1.05954 0.0260207 0.0 
1.05607 0.0945111 0.0 
1.1015 -0.0690411 0.0 
1.09516 0.103772 0.0 
0.976465 -0.00279386 0.0 
0.876936 0.182845 0.0 
0.996529 0.014812 0.0 
0.996887 0.0114227 0.0 
0.890352 -0.0411284 0.0 
0.978479 0.0260755 0.0 
1.16417 -0.226167 0.0 
0.717103 0.0124418 0.0 
0.941977 0.0416503 0.0 
1.01772 0.302227 0.0 
0.909026 0.352995 0.0 
0.83916 0.132014 0.0 
1.15746 0.0716598 0.0 
0.154449 0.134156 0.0 
1.01913 0.289125 0.0 
1.06725 0.265155 0.0 
1.03576 -0.0070754 0.0 
0.93878 0.0941714 0.0 
0.0610287 0.0224097 0.0 
1.17601 0.144745 0.0 
0.97754 0.0321698 0.0 
0.910024 0.121931 0.0 
1.12766 0.218512 0.0 
0.851508 0.124206 0.0 
-0.0316494 -0.0237286 0.0 
0.978645 0.0303081 0.0 
0.925097 0.0736143 0.0 
0.749101 0.139935 0.0 
0.979503 0.0270517 0.0 
0.91183 0.149955 0.0 
0.995785 0.0128417 0.0 
0.903152 0.101394 0.0 
0.978992 0.0282197 0.0 
0.854022 0.0556181 0.0 
0.831224 0.0225206 0.0 
0.904326 0.164011 0.0 
0.998693 0.0117074 0.0 
0.968818 -0.00455917 0.0 
0.979976 0.0253927 0.0 
0.998967 0.0180291 0.0 
0.962651 -0.00459657 0.0 
0.9616 -0.00827843 0.0 
0.966114 -0.00404978 0.0 
0.938583 -0.0412996 0.0 
0.925868 0.0581404 0.0 
0.926475 0.0880526 0.0 
1.03645 -0.00222543 0.0 
0.989484 0.0324377 0.0 
1.05806 0.0273985 0.0 
0.999061 0.014922 0.0 
1.07395 -0.00455133 0.0 
1.0044 0.0800012 0.0 
0.949657 0.013416 0.0 
0.976715 0.0273733 0.0 
1.04999 -0.160272 0.0 
1.10262 0.241993 0.0 
1.12488 0.230123 0.0 
0.933841 -0.0320785 0.0 
0.998957 0.0144424 0.0 
0.951145 0.011074 0.0 
0.996276 0.0139488 0.0 
0.97952 0.00556341 0.0 
1.05121 0.0108984 0.0 
1.04894 -0.170988 0.0 
0.148615 0.0188209 0.0 
0.670055 0.13637 0.0 
0.942996 -0.0424642 0.0 