<VTKFile type="UnstructuredGrid" version="0.1" byte_order="LittleEndian">
  <UnstructuredGrid>
    <Piece NumberOfPoints="23363" NumberOfCells="46608">
      <Points>
        <DataArray type = "Float64" NumberOfComponents="3" format="ascii">
-5 -7 0.0 
15.5 -7 0.0 
15.5 7 0.0 
-5 7 0.0 
3.18355 0.169963 0.0 
0.744743 -0.0245507 0.0 
-0.710082 0.3737 0.0 
3.54957 0.925901 0.0 
0.673904 -0.460293 0.0 
0.00357444 0.0170209 0.0 
4.31989 -1.69487 0.0 
2.39705 2.2728 0.0 
-0.895939 -2.86691 0.0 
2.40837 0.46912 0.0 
4.59058 -0.621464 0.0 
2.55179 1.01725 0.0 
4.61399 0.0713575 0.0 
4.24135 -0.223975 0.0 
0.120658 -0.0372114 0.0 
1.53551 -0.916129 0.0 
0.901939 2.91828 0.0 
-0.612495 -0.236684 0.0 
4.99259 -4.54755 0.0 
0.780345 -0.0266691 0.0 
3.45113 0.173009 0.0 
2.42109 -0.214438 0.0 
5.19146 0.585715 0.0 
0.566652 0.0897206 0.0 
-2.04169 2.27506 0.0 
8.37805 0.0277781 0.0 
1.55666 1.53218 0.0 
4.54256 4.34305 0.0 
0.307839 -3.51724 0.0 
2.19809 0.543599 0.0 
0.107351 0.924395 0.0 
-0.60249 0.408637 0.0 
0.162666 0.101807 0.0 
0.818564 0.0186712 0.0 
2.11482 0.243429 0.0 
7.28044 -0.676414 0.0 
4.75694 -0.287149 0.0 
3.18769 0.747325 0.0 
-0.554592 0.912013 0.0 
0.329707 -1.13269 0.0 
6.64097 1.71952 0.0 
2.24937 0.909197 0.0 
0.952447 -0.00545261 0.0 
0.704537 -1.22188 0.0 
-3.0161 0.308062 0.0 
2.83064 -0.121165 0.0 
4.58296 0.80603 0.0 
0.342706 -0.0445613 0.0 
3.53841 -4.17652 0.0 
4.09726 0.29417 0.0 
-2.78976 -0.608246 0.0 
0.245902 0.0445196 0.0 
0.98182 -0.00234488 0.0 
0.312588 -0.045315 0.0 
0.162793 0.0714252 0.0 
-1.16192 2.59577 0.0 
0.947784 -0.00635413 0.0 
15.5 5.74627 0.0 
0.905726 -0.012091 0.0 
2.59426 -1.05095 0.0 
0.913668 0.886882 0.0 
0.373201 0.0634108 0.0 
1.84164 -0.788891 0.0 
0.817571 -0.0182051 0.0 
1.31668 0.686478 0.0 
1.9638 0.17137 0.0 
-2.49719 3.29173 0.0 
-0.334695 -0.59899 0.0 
-1.06701 4.99404 0.0 
0.104646 -0.0359396 0.0 
2.85582 -1.29091 0.0 
-2.46645 1.8403 0.0 
-4.4386 0.211068 0.0 
-0.117446 0.782219 0.0 
6.95684 -2.1689 0.0 
-0.727497 -1.11308 0.0 
5.32983 -2.66539 0.0 
-0.735268 0.973456 0.0 
-2.24077 0.751408 0.0 
4.69545 -1.4105 0.0 
5.2637 0.829009 0.0 
0.474289 0.0410955 0.0 
4.18635 0.578246 0.0 
0.881069 0.019758 0.0 
4.22485 0.361379 0.0 
1.74304 -1.16672 0.0 
-1.99337 -6.54339 0.0 
-0.897961 -1.21087 0.0 
6.03814 0.519242 0.0 
4.46587 -0.160323 0.0 
3.42216 0.888527 0.0 
3.00792 -0.733911 0.0 
0.431538 -0.0463053 0.0 
1.95618 -0.900845 0.0 
0.813531 0.01865 0.0 
1.7464 -0.313211 0.0 
1.02723 -0.0221506 0.0 
0.154229 -0.210612 0.0 
4.95981 1.28089 0.0 
3.29459 1.04115 0.0 
1.20256 -1.51503 0.0 
0.611521 -0.0348414 0.0 
1.6323 0.444164 0.0 
0.105602 -0.0356587 0.0 
2.37201 0.562293 0.0 
5.72095 0.794109 0.0 
0.434749 -0.0654113 0.0 
0.404053 -0.0510612 0.0 
3.87079 -0.00723506 0.0 
0.920555 -0.00873148 0.0 
0.611398 -0.0418877 0.0 
6.54424 2.96551 0.0 
0.298395 0.045412 0.0 
0.381016 -0.139498 0.0 
-0.0127712 -0.363675 0.0 
-1.11211 0.450976 0.0 
5.70107 0.103025 0.0 
2.56821 1.18202 0.0 
1.94198 0.759367 0.0 
-0.767916 -1.36647 0.0 
6.26558 3.27619 0.0 
0.393758 0.0433312 0.0 
1.03918 -3.7326 0.0 
2.98196 -2.19664 0.0 
-0.723337 0.659752 0.0 
0.769751 0.0257312 0.0 
-0.0432695 -0.11786 0.0 
1.77324 0.00772123 0.0 
0.0285682 0.173596 0.0 
3.56944 0.143615 0.0 
5.16625 -0.902404 0.0 
0.425461 -0.0460145 0.0 
1.38609 -0.847178 0.0 
0.520909 -0.0389841 0.0 
4.55484 0.54821 0.0 
1.4616 0.543244 0.0 
-1.51227 -3.24022 0.0 
0.195347 -0.0434187 0.0 
0.773677 0.0218742 0.0 
2.8431 0.557929 0.0 
0.716175 0.028287 0.0 
2.39889 -2.99953 0.0 
-0.51449 -0.450123 0.0 
0.258525 0.0466297 0.0 
4.25711 0.659543 0.0 
-2.40935 0.24635 0.0 
0.709715 0.026853 0.0 
0.461961 -0.0451465 0.0 
4.33861 1.14821 0.0 
1.20554 -2.71579 0.0 
4.74695 -0.0834236 0.0 
-1.25611 -2.04971 0.0 
0.105046 -0.035758 0.0 
4.33429 0.977449 0.0 
5.09236 -1.028 0.0 
3.17292 -0.964184 0.0 
0.783705 -0.0213671 0.0 
-0.696512 0.213324 0.0 
0.694681 -1.0517 0.0 
2.0986 0.950783 0.0 
-0.144149 -1.14963 0.0 
5.98059 -0.0630815 0.0 
0.272064 0.0469145 0.0 
7.58514 -1.24129 0.0 
0.163388 0.0413523 0.0 
1.3889 0.372075 0.0 
4.27843 -0.00377209 0.0 
0.744189 -0.0244378 0.0 
2.79687 -2.66962 0.0 
0.653549 0.0309269 0.0 
2.68167 3.30593 0.0 
0.794288 0.0215449 0.0 
-2.47477 1.26123 0.0 
5.09925 -1.86304 0.0 
-0.466599 0.560973 0.0 
-0.330097 -1.0788 0.0 
5.7239 -0.911637 0.0 
3.61674 6.08518 0.0 
0.362692 0.525858 0.0 
3.19883 0.102832 0.0 
0.22945 2.81099 0.0 
0.641973 0.0318816 0.0 
7.10696 -3.51522 0.0 
1.0976 -0.906533 0.0 
-0.983346 0.0960112 0.0 
3.69587 0.974536 0.0 
0.43894 0.0460078 0.0 
5.1257 0.97087 0.0 
-0.622535 0.30182 0.0 
-1.56092 3.32284 0.0 
5.43119 -0.717194 0.0 
5.33983 1.75066 0.0 
-1.42733 7 0.0 
0.910732 -0.0118628 0.0 
2.4817 0.280534 0.0 
3.13538 2.12501 0.0 
0.361087 0.0547235 0.0 
5.82914 1.78028 0.0 
-0.821698 0.503315 0.0 
0.290106 -0.049867 0.0 
4.75976 3.94984 0.0 
1.82454 0.70259 0.0 
-1.63339 5.68418 0.0 
0.566444 0.0366038 0.0 
2.31934 -1.53538 0.0 
0.25718 0.0458892 0.0 
2.57004 -1.3673 0.0 
3.63568 -1.99783 0.0 
0.530012 -0.039092 0.0 
0.649549 -0.0431496 0.0 
4.32836 0.47074 0.0 
0.655561 0.817909 0.0 
3.18094 -0.81054 0.0 
-0.426085 0.78836 0.0 
0.863499 0.0220645 0.0 
3.9173 -2.64737 0.0 
1.81616 0.825568 0.0 
5.21321 -0.3675 0.0 
5.05131 -2.3443 0.0 
2.76676 -0.692798 0.0 
0.523287 -0.0392515 0.0 
-0.334864 -1.48154 0.0 
-0.686158 0.502283 0.0 
1.92641 0.64398 0.0 
0.731698 -0.0325633 0.0 
0.856785 -0.0286247 0.0 
7.15765 -0.0187663 0.0 
0.379531 -0.0439182 0.0 
4.50834 1.24285 0.0 
5.04618 1.12251 0.0 
-2.75505 1.07417 0.0 
-0.376301 0.599203 0.0 
3.44752 -0.852391 0.0 
0.698623 0.0279606 0.0 
0.121194 0.0455902 0.0 
5.716 0.456114 0.0 
0.808472 1.96142 0.0 
6.81304 0.755503 0.0 
-0.0582398 -0.866136 0.0 
7.71188 -2.96547 0.0 
-3.53705 1.25281 0.0 
0.465882 -0.0460405 0.0 
2.68677 1.09402 0.0 
0.248043 0.0606486 0.0 
5.1925 -0.455267 0.0 
4.24047 0.492028 0.0 
0.110835 -0.0368906 0.0 
-4.31281 0.610337 0.0 
5.32607 -0.517305 0.0 
0.295832 0.0451375 0.0 
1.6222 -1.05255 0.0 
4.61321 0.946391 0.0 
1.26604 -1.76966 0.0 
13.473 0.899641 0.0 
0.616902 -0.0332103 0.0 
0.809136 -0.975967 0.0 
4.51167 -3.90486 0.0 
3.31578 -0.147805 0.0 
-1.70514 0.742376 0.0 
0.140221 -0.0404193 0.0 
-2.86794 -1.50104 0.0 
-3.9925 0.39875 0.0 
0.688043 -0.0283487 0.0 
0.41163 0.0431436 0.0 
0.070736 0.0310864 0.0 
0.60708 -0.0352384 0.0 
5.6406 -0.275737 0.0 
6.11037 -2.86662 0.0 
-1.04888 -2.63871 0.0 
-1.14969 -3.07497 0.0 
1.73323 -4.24468 0.0 
-1.4039 -0.0451297 0.0 
6.09745 -0.766074 0.0 
0.273565 -0.0568202 0.0 
-1.09339 -0.536899 0.0 
0.00345425 -2.89962 0.0 
6.81416 0.1292 0.0 
0.517155 -0.0432512 0.0 
6.01276 1.28167 0.0 
13.9816 4.77172 0.0 
0.28396 -0.0453167 0.0 
2.88058 -0.741008 0.0 
7.84664 -1.16271 0.0 
2.15075 -1.20416 0.0 
3.54818 -1.20239 0.0 
0.473618 -0.0401675 0.0 
14.87 -0.029199 0.0 
1.00775 4.0316 0.0 
0.974025 -0.0409629 0.0 
8.22526 -4.8738 0.0 
0.887209 -0.544502 0.0 
0.998481 -0.832441 0.0 
0.568923 0.0364122 0.0 
0.727782 0.0259556 0.0 
5.48092 1.38943 0.0 
-1.83845 -0.200487 0.0 
4.07801 1.29724 0.0 
2.08625 -0.925211 0.0 
0.0620809 -0.817764 0.0 
5.27023 -0.626315 0.0 
0.912606 -0.011047 0.0 
5.49899 -0.273558 0.0 
3.90043 4.10085 0.0 
0.0225377 3.95803 0.0 
5.21047 -0.750396 0.0 
-0.521178 -1.1139 0.0 
-4.44721 3.72648 0.0 
1.36924 0.584406 0.0 
-0.253096 1.92927 0.0 
3.93985 2.09146 0.0 
0.774692 0.0307712 0.0 
-2.02904 3.58675 0.0 
3.2496 -2.26857 0.0 
5.32949 -0.773983 0.0 
2.23867 1.77032 0.0 
1.10652 -1.9489 0.0 
0.312913 -0.0849242 0.0 
0.0172552 -0.0162453 0.0 
9.45979 0.781166 0.0 
6.74235 6.39225 0.0 
4.68058 2.94067 0.0 
15.5 -1.66279 0.0 
3.62151 -1.55948 0.0 
0.397477 0.0436231 0.0 
0.657063 -2.70441 0.0 
-1.28443 -4.02214 0.0 
2.83372 -3.64336 0.0 
5.09615 0.78562 0.0 
0.555374 0.97002 0.0 
4.12345 -0.30452 0.0 
1.90219 2.04198 0.0 
6.28646 5.2043 0.0 
0.144398 2.14983 0.0 
0.956097 0.00557641 0.0 
5.95507 -1.30786 0.0 
5.28508 -1.41701 0.0 
0.432992 -1.28321 0.0 
0.23712 -0.0595424 0.0 
5.60263 1.58075 0.0 
0.664231 0.0303894 0.0 
0.386978 2.29806 0.0 
5.26558 1.13033 0.0 
-3.13271 -2.17991 0.0 
2.1442 -1.39367 0.0 
-0.206047 6.45275 0.0 
-4.12487 -2.83898 0.0 
5.83445 0.975451 0.0 
4.31721 4.04332 0.0 
3.07279 0.575238 0.0 
0.608711 -0.0348912 0.0 
4.43117 3.64632 0.0 
3.19622 -1.06892 0.0 
1.75502 -1.91759 0.0 
8.9956 3.97791 0.0 
11.4173 3.59115 0.0 
0.696639 0.0581677 0.0 
1.37197 -0.474784 0.0 
4.33724 -6.58225 0.0 
-1.74472 1.55061 0.0 
1.56045 1.14697 0.0 
13.9459 -3.10045 0.0 
-1.52858 0.284609 0.0 
0.106452 0.0364003 0.0 
-0.919681 0.994772 0.0 
3.52309 1.62761 0.0 
3.72888 -0.862891 0.0 
1.42118 -3.00108 0.0 
-1.07301 -6.0599 0.0 
1.40469 -0.738384 0.0 
4.95271 -3.62788 0.0 
5.40941 0.71042 0.0 
0.0146518 -0.0153777 0.0 
2.39027 0.982076 0.0 
-3.0083 2.64591 0.0 
1.14279 -1.05216 0.0 
1.71616 -3.85788 0.0 
0.980652 -1.61171 0.0 
1.25891 -2.13878 0.0 
-1.36365 -0.87363 0.0 
0.610031 -0.0346186 0.0 
-0.557188 -0.335255 0.0 
0.541448 -2.2265 0.0 
-0.545654 0.489578 0.0 
7.26064 2.03351 0.0 
0.604301 1.12738 0.0 
5.57108 -0.830566 0.0 
2.68815 -1.19547 0.0 
6.2361 -1.41474 0.0 
1.66026 2.81597 0.0 
-0.477172 -3.29624 0.0 
10.0245 -3.30748 0.0 
5.02743 0.40075 0.0 
0.0402966 -0.0250356 0.0 
0.107464 -0.044637 0.0 
14.2747 6.40505 0.0 
3.98603 -3.11015 0.0 
-3.89751 -1.54046 0.0 
-1.64818 0.0546894 0.0 
-1.42996 0.459698 0.0 
2.46657 -2.69838 0.0 
0.0143401 -0.0718848 0.0 
0.0999988 0.0356153 0.0 
0.774483 0.0260124 0.0 
-0.979663 -0.741265 0.0 
-3.94398 -5.64295 0.0 
5.3254 1.99652 0.0 
0.351769 -1.60556 0.0 
8.56083 -0.889949 0.0 
1.95068 -1.23123 0.0 
-3.91942 4.62704 0.0 
0.247881 -0.0952808 0.0 
-1.06096 -1.19217 0.0 
4.79818 -5.95027 0.0 
-3.24218 -1.28865 0.0 
0.663356 0.0302614 0.0 
1.24529 -0.90962 0.0 
2.7168 0.0441524 0.0 
-0.782758 -0.876825 0.0 
5.78736 -1.72714 0.0 
2.23835 1.05059 0.0 
-0.788002 4.00714 0.0 
0.203486 0.0442897 0.0 
2.90626 -1.72723 0.0 
0.709537 0.0263426 0.0 
5.97351 -3.18221 0.0 
2.38312 -0.608132 0.0 
[...]
<PointData>
  <DataArray type = "Float64" Name="VitesseP1" NumberOfComponents="3" format="ascii">
1 0 0.0 
1.00006 0 0.0 
1.00008 0 0.0 
1 0 0.0 
0.999951 -0.000398561 0.0 
0.0065958 0.000379695 0.0 
0.991995 0.00697133 0.0 
1.00134 -0.000696084 0.0 
1.02664 0.0131933 0.0 
0.715661 0.397511 0.0 
1.00147 0.000487338 0.0 
1.00205 -0.000923197 0.0 
1.00134 -0.00151215 0.0 
1.00012 -0.00169179 0.0 
1.00158 0.000316988 0.0 
1.00119 -0.00171678 0.0 
0.945125 -0.000672754 0.0 
1.00106 0.000241157 0.0 
0 0 0.0 
1.00276 0.00524825 0.0 
1.00244 0.000284713 0.0 
0.987943 -0.00690994 0.0 
1.00087 8.73979e-05 0.0 
0.239551 0.0184532 0.0 
1.00013 -0.000364412 0.0 
0.99987 0.00115855 0.0 
1.00165 -0.000260777 0.0 
1.06984 -0.0401099 0.0 
1.0003 0.0014775 0.0 
0.981684 0.000112344 0.0 
1.00369 -0.00221514 0.0 
1.00094 -0.00014756 0.0 
1.00174 -0.000615788 0.0 
0.999954 -0.00242157 0.0 
1.01037 0.00888124 0.0 
0.991771 0.00942608 0.0 
1.09663 0.0855599 0.0 
0.0100551 -0.000604892 0.0 
0.998529 -0.0019328 0.0 
1.00382 0.000999141 0.0 
1.0016 0.000208016 0.0 
1.00113 -0.000863608 0.0 
1.00005 0.00845912 0.0 
1.00978 -0.0036985 0.0 
1.00128 -0.000450857 0.0 
1.00108 -0.00240836 0.0 
0 0 0.0 
1.00873 0.000626373 0.0 
0.999436 0.000227246 0.0 
1.01019 0.000567617 0.0 
1.00156 -0.000338171 0.0 
0 0 0.0 
1.0011 0.000245221 0.0 
1.00136 -0.000276766 0.0 
0.999345 -0.000538586 0.0 
0 0 0.0 
1.05034e-09 9.75247e-10 0.0 
0.0147069 0.000115246 0.0 
1.11673 0.0919477 0.0 
1.00109 0.00176908 0.0 
0.00314641 0.000306169 0.0 
1.00006 -3.68588e-05 0.0 
0.0475749 0.00422351 0.0 
1.00131 0.00167003 0.0 
1.01031 -0.00574552 0.0 
1.07046 -0.00770602 0.0 
1.00101 0.004106 0.0 
0 0 0.0 
1.00322 -0.00878718 0.0 
0.997489 -0.00215267 0.0 
1.00029 0.000813265 0.0 
0.998448 -0.0155065 0.0 
1.00063 0.000420621 0.0 
8.6211e-08 -1.01248e-08 0.0 
1.00135 0.00129791 0.0 
0.99993 0.00122184 0.0 
0.999953 3.16169e-05 0.0 
1.00631 0.0136653 0.0 
1.0012 0.000431749 0.0 
1.00019 -0.00603286 0.0 
1.0012 0.00019392 0.0 
0.999401 0.00646149 0.0 
0.99896 0.00106944 0.0 
1.00142 0.000389746 0.0 
1.00157 -0.000292034 0.0 
5.65437e-08 -3.71181e-09 0.0 
1.00146 -0.000362202 0.0 
0.284725 -0.0242324 0.0 
1.00138 -0.000287249 0.0 
1.00267 0.00334805 0.0 
1.0003 -8.0348e-05 0.0 
1.00009 -0.00490954 0.0 
0.999932 -0.000371058 0.0 
1.00567 0.000153325 0.0 
1.00131 -0.0007606 0.0 
1.00096 0.00104749 0.0 
0.267171 0.00839146 0.0 
1.00131 0.00343872 0.0 
0 0 0.0 
0.997185 0.00448312 0.0 
0.580328 0.0675902 0.0 
1.05403 -0.0606333 0.0 
1.00146 -0.000314824 0.0 
1.00126 -0.000880428 0.0 
1.00484 0.00196584 0.0 
0.0590926 0.003706 0.0 
0.998444 -0.00616976 0.0 
0 0 0.0 
1.00022 -0.00190969 0.0 
1.00175 -2.10461e-05 0.0 
1.07681 0.0219664 0.0 
0.575126 0.012951 0.0 
0.874329 7.04488e-05 0.0 
0 0 0.0 
0.474289 0.0274342 0.0 
1.00104 -0.000199636 0.0 
0.0154774 0.000174739 0.0 
1.0849 -0.000510555 0.0 
1.0091 -0.0400034 0.0 
0.995469 0.00336379 0.0 
0.95828 -0.00684324 0.0 
1.00135 -0.00164637 0.0 
1.00078 -0.00361874 0.0 
1.00104 -0.00483774 0.0 
1.00101 -0.00014242 0.0 
0 0 0.0 
1.00168 -0.000204368 0.0 
1.00169 0.000849059 0.0 
0.996419 0.00777049 0.0 
0.149009 -0.0115383 0.0 
0.952801 -0.0943906 0.0 
0.756921 -0.000785491 0.0 
1.00933 0.0912414 0.0 
1.00604 -0.000280083 0.0 
1.00161 0.000313125 0.0 
0.231407 0.00719023 0.0 
1.00364 0.00658895 0.0 
0.00871699 0.000361212 0.0 
1.00156 -0.000294247 0.0 
1.0001 -0.00838132 0.0 
1.00077 -0.00114686 0.0 
0.0485211 -0.00270112 0.0 
0 0 0.0 
1.00073 -0.00107567 0.0 
0.0800959 -0.00563547 0.0 
1.00179 0.000489503 0.0 
0.992588 -0.0118657 0.0 
0.18024 0.00280813 0.0 
1.00148 -0.000367326 0.0 
0.998799 0.000319879 0.0 
0 0 0.0 
0.252741 0.00957498 0.0 
1.00141 -0.000441929 0.0 
1.00267 7.03632e-05 0.0 
0.958842 0.000641258 0.0 
1.00083 -0.00238804 0.0 
0 0 0.0 
1.00146 -0.000413221 0.0 
1.00155 0.000336495 0.0 
1.00125 0.000986035 0.0 
7.87012e-07 5.38327e-08 0.0 
0.98917 0.0048639 0.0 
1.01081 0.0014719 0.0 
1.0013 -0.00279671 0.0 
1.00531 -0.00732735 0.0 
0.954818 0.00225334 0.0 
0.186398 0.00133631 0.0 
1.00068 0.000867177 0.0 
1.68684e-07 2.03053e-08 0.0 
0.996962 -0.0105946 0.0 
0.884847 0.000147373 0.0 
1.04986e-07 7.44402e-09 0.0 
1.00172 0.000655182 0.0 
1.00907e-08 -4.14725e-10 0.0 
1.00156 -0.000385002 0.0 
0.044453 -0.00296525 0.0 
0.999553 0.00115766 0.0 
1.00142 0.000306984 0.0 
0.995556 0.0127612 0.0 
1.00313 -0.00803236 0.0 
1.00178 -2.32387e-05 0.0 
1.00078 -4.92235e-05 0.0 
1.02941 0.00812424 0.0 
1.00292 -0.000886253 0.0 
1.00243 0.00101519 0.0 
0.00892907 -0.000671366 0.0 
1.00086 0.000243068 0.0 
1.00738 0.0065085 0.0 
0.992662 0.00103638 0.0 
1.00135 -0.000631088 0.0 
0.259896 -0.00843932 0.0 
1.00154 -0.000252701 0.0 
0.989512 0.00783714 0.0 
1.00072 0.0010816 0.0 
1.0017 0.000310676 0.0 
1.00143 -0.000241614 0.0 
1.00038 0 0.0 
0.0551734 0.00529912 0.0 
0.999674 -0.00118883 0.0 
1.0016 -0.00081315 0.0 
0.789629 -0.00759621 0.0 
1.00138 -0.000226078 0.0 
0.994518 0.00628304 0.0 
0.457947 -0.00403182 0.0 
1.00101 -0.000156008 0.0 
1.00057 -0.00431881 0.0 
1.00042 0.000250211 0.0 
0.00948418 -0.000868452 0.0 
1.00194 0.00173221 0.0 
0.105413 0.0009927 0.0 
1.00152 0.00158338 0.0 
1.00151 0.000684165 0.0 
0.0392946 0.00160755 0.0 
0.626695 0.0379853 0.0 
1.0015 -0.000306215 0.0 
1.01523 -0.00289024 0.0 
1.00114 0.000927334 0.0 
0.999989 0.0109857 0.0 
0.325941 -0.026892 0.0 
1.00139 0.000496178 0.0 
1.00127 -0.00413075 0.0 
1.0019 0.000121204 0.0 
1.00132 0.000262895 0.0 
1.00081 0.00131869 0.0 
0.029077 0.000648231 0.0 
1.00324 -0.00488895 0.0 
0.993956 0.0081738 0.0 
1.00013 -0.00373406 0.0 
0.367362 0.0262527 0.0 
0.560751 0.0443757 0.0 
0.971264 0.00175113 0.0 
0 0 0.0 
1.00143 -0.00039988 0.0 
1.00146 -0.000294898 0.0 
0.999528 0.000845184 0.0 
0.997621 0.0145282 0.0 
1.00126 0.000757231 0.0 
0.00561237 -0.000552133 0.0 
1.02705 0.12112 0.0 
0.99777 -0.00196378 0.0 
1.00434 0.000135739 0.0 
1.00123 -0.000435275 0.0 
1.00771 -0.0114554 0.0 
1.00084 0.00045666 0.0 
0.999861 0.000439199 0.0 
0.328988 0.0124886 0.0 
1.00127 -0.0015051 0.0 
1.10431 0.0390224 0.0 
1.00161 0.000292999 0.0 
1.00148 -0.000327243 0.0 
0.0420268 -0.00301627 0.0 
0.999954 9.64182e-05 0.0 
1.00139 0.000668093 0.0 
9.77033e-09 4.35711e-10 0.0 
1.00306 0.00422448 0.0 
1.00152 -0.000348767 0.0 
1.00434 0.00125844 0.0 
0.999779 -0.000135513 0.0 
0 0 0.0 
1.01075 0.00352458 0.0 
1.00103 0.000204419 0.0 
1.00411 0.00039449 0.0 
0.998217 0.00195932 0.0 
0.139831 -0.0107274 0.0 
0.999769 -0.00089685 0.0 
0.999887 0.000102857 0.0 
0 0 0.0 
0 0 0.0 
0.041093 0.00574383 0.0 
0.0668764 0.00318855 0.0 
1.01195 -0.0024571 0.0 
1.0011 0.000156927 0.0 
1.00122 -0.00175149 0.0 
1.00104 -0.00132501 0.0 
1.00134 9.52309e-06 0.0 
0.995999 -0.00027241 0.0 
1.00093 0.00066882 0.0 
0.985366 -0.022076 0.0 
0.995963 -0.00390431 0.0 
1.00217 -0.00112488 0.0 
0.966098 -0.00328463 0.0 
0.272221 0.012481 0.0 
1.00132 -0.000404068 0.0 
1.00009 -0.000102723 0.0 
0.0171389 0.000315107 0.0 
1.0009 0.00118954 0.0 
1.00071 0.000676041 0.0 
1.00178 0.00238795 0.0 
1.00134 0.000769137 0.0 
0 0 0.0 
0.999894 -9.31978e-06 0.0 
1.00146 0.000211398 0.0 
0.922803 0.0678323 0.0 
1.00063 0.000185266 0.0 
1.01413 0.0148009 0.0 
1.00904 0.00734479 0.0 
0.0102408 -0.000553202 0.0 
0.0146818 -0.00108188 0.0 
1.00147 -0.000255031 0.0 
0.997727 -0.000600555 0.0 
1.00141 -0.000537423 0.0 
1.00122 0.00289963 0.0 
1.01093 -0.0116837 0.0 
1.00179 0.000182406 0.0 
0.0340648 0.00318883 0.0 
1.00934 0.000186281 0.0 
1.00107 -0.000232174 0.0 
1.00133 0.000581673 0.0 
1.00156 0.000350296 0.0 
1.00148 -0.00707671 0.0 
1.00001 0.000142112 0.0 
1.00142 -0.00931668 0.0 
1.00297 0.00298038 0.0 
1.00142 -0.000562089 0.0 
0.422875 -0.0317431 0.0 
1.0005 0.000842738 0.0 
1.00158 0.000745404 0.0 
1.0016 0.000282521 0.0 
1.00218 -0.00148166 0.0 
1.00406 0.00066173 0.0 
1.10906 -0.0151313 0.0 
0 0 0.0 
1.00291 -0.00150325 0.0 
1.00068 -1.39542e-05 0.0 
1.00121 -0.000271482 0.0 
0.999944 5.66627e-05 0.0 
1.00145 0.000746417 0.0 
0 0 0.0 
1.00276 -0.000553389 0.0 
1.00076 -0.000756688 0.0 
1.0014 0.000313771 0.0 
1.00163 -0.000278203 0.0 
1.01292 0.000365903 0.0 
1.00132 0.000297352 0.0 
1.0026 -0.00118707 0.0 
1.00076 -3.16579e-05 0.0 
1.00352 0.00179647 0.0 
0.00390021 -0.000421431 0.0 
1.00127 0.000419639 0.0 
1.00142 0.000299615 0.0 
1.00839 -0.00198323 0.0 
1.09872 -0.0440878 0.0 
1.00146 -0.000274832 0.0 
0.00804208 -0.00035161 0.0 
1.0035 0.00112113 0.0 
1.00148 -0.000284695 0.0 
0.999995 -0.000754947 0.0 
1.00194 0.00211735 0.0 
1.00062 8.48354e-05 0.0 
1.00002 -0.000286285 0.0 
1.00138 -0.00054871 0.0 
1.00103 -0.000206427 0.0 
1.00093 -0.000857923 0.0 
0.0528676 0.00274791 0.0 
1.00111 -0.000237071 0.0 
1.00129 0.000991451 0.0 
1.00296 0.001369 0.0 
1.0006 -0.000332708 0.0 
1.00021 -0.000327152 0.0 
1.0235 -0.0575603 0.0 
0.999627 0.0104749 0.0 
1.00071 2.21191e-05 0.0 
0.999808 0.00217507 0.0 
1.00334 -0.00383851 0.0 
0.999998 0.000145776 0.0 
0.996753 0.00115471 0.0 
0.0443995 0.00687773 0.0 
0.998893 0.00538666 0.0 
1.00155 -0.000764396 0.0 
1.00135 0.00061085 0.0 
1.00226 0.000136871 0.0 
1.0005 -0.000170415 0.0 
1.00294 0.00745607 0.0 
1.00104 0.000159998 0.0 
1.00171 -0.000115938 0.0 
0.0985707 -0.052554 0.0 
1.0012 -0.00203789 0.0 
1.00011 0.000760901 0.0 
1.00658 0.00473108 0.0 
1.00156 5.08386e-05 0.0 
1.00543 0.000916215 0.0 
1.00341 0.000603784 0.0 
0.998171 -0.00315871 0.0 
0.0418722 0.00237166 0.0 
0.989244 -0.00986452 0.0 
1.00371 -0.000924281 0.0 
0.993547 0.01107 0.0 
1.00116 -0.00043003 0.0 
1.00981 0.000115596 0.0 
1.00175 0.000342724 0.0 
1.00134 0.00151312 0.0 
1.00127 0.000344976 0.0 
1.00229 -0.000350558 0.0 
1.00147 -0.00109194 0.0 
1.00036 0.000497285 0.0 
1.00163 -0.000234489 0.0 
0.134558 -0.0336109 0.0 
1.07072 -0.142914 0.0 
1.00011 -2.52991e-05 0.0 
1.00127 0.000397499 0.0 
0.999952 -0.000362397 0.0 
0.997107 0.000196447 0.0 
0.996945 0.00200407 0.0 
1.00188 0.000652124 0.0 
0.969018 -0.191205 0.0 
0.0555519 0.00836781 0.0 
0.181315 -0.0140568 0.0 
0.997237 -0.00524512 0.0 
1.00005 -0.000106651 0.0 
1.00135 -0.000234085 0.0 
1.00588 -0.00210136 0.0 
1.00354 0.000622189 0.0 
1.00217 0.00274245 0.0 
1.00005 0.000198997 0.0 
1.10886 -0.0418762 0.0 
0.99959 -0.00428943 0.0 
1.00072 3.58011e-05 0.0 
0.999774 -0.000599166 0.0 
9.20314e-09 -6.74246e-10 0.0 
1.00543 0.00635609 0.0 
0.898984 -0.00121432 0.0 
0.998602 -0.00666365 0.0 
1.00132 0.000276997 0.0 
1.00138 -0.00235652 0.0 
1.00098 0.000735962 0.0 
0.108262 0.00368214 0.0 
1.00169 0.00109685 0.0 
0 0 0.0 
1.00103 0.000136065 0.0 
1.0004 0.00197795 0.0 
1.00123 -0.000257285 0.0 
0.999111 0.00122852 0.0 
0 0 0.0 
4.78404e-09 -6.4062e-10 0.0 
1.00092 0.000340451 0.0 
1.00146 -0.00066484 0.0 
1.00049 0.000275544 0.0 
0.999703 0.000725853 0.0 
1.00057 -0.000441333 0.0 
0.996493 0.00315769 0.0 
1.00141 0.000487906 0.0 
1.00219 -0.00172104 0.0 
1.00038 0.00066717 0.0 
1.00003 0.000136877 0.0 
1.00002 0.000418721 0.0 
1.01949 -0.00514976 0.0 
1.00162 -0.000279733 0.0 
0.998513 -0.00485572 0.0 
0.990629 0.000968503 0.0 
1.0014 0.000245394 0.0 
1.0014 0.000517812 0.0 
0.999801 0.00171947 0.0 
1.0036 -0.00154889 0.0 
1.00184 -1.40254e-05 0.0 
1.00001 -0.000145604 0.0 
0.999201 0.00127209 0.0 
1.00111 0.00122412 0.0 
0.999816 0.001629 0.0 
0.996905 -0.000517278 0.0 
1.00122 0.000213869 0.0 
1.00777 -0.00811464 0.0 
1.00134 0.000557294 0.0 
1.00135 -0.000331692 0.0 
1.00048 0.00102117 0.0 
1.00148 -0.000287923 0.0 
1.00793 -0.00537851 0.0 
0.997488 0.000652026 0.0 
0.999872 0.000195711 0.0 
0.999899 -0.000686481 0.0 
1.00073 -7.72438e-06 0.0 
1.02136 -0.0164109 0.0 
1.00159 0.000311526 0.0 
1.00095 0.00133939 0.0 
1.00141 -0.000327899 0.0 
1.001 0.0011867 0.0 
0.999942 -0.000162076 0.0 
1.00116 -0.000106243 0.0 
1.00019 -0.000137808 0.0 
1.0008 -0.000246504 0.0 
1.00073 -0.000522654 0.0 
0.998105 0.00674242 0.0 
1.0069 -0.00256353 0.0 
1.00033 -0.000310567 0.0 
0.999815 -0.00146269 0.0 
1.00643 -0.000915502 0.0 
0.871901 0.0649719 0.0 
1.00056 -8.1683e-05 0.0 
0.0715488 0.00455927 0.0 
0.999764 0.000203322 0.0 
1.00154 0.000633621 0.0 
1.00125 0.000473779 0.0 
1.00132 0.000290238 0.0 
1.00234 -0.000911981 0.0 
1.00067 -4.47082e-05 0.0 
1.00142 0.000573973 0.0 
1.00136 0.000202845 0.0 
1.00639 -0.00582288 0.0 
1.01806 0.00414893 0.0 
0.996957 -0.00116803 0.0 
1.00154 -0.000336679 0.0 
1.00188 0.065335 0.0 
1.00138 0.000533253 0.0 
0.990468 0.00133115 0.0 
1.0043 -5.29171e-05 0.0 
1.00125 -0.00085495 0.0 
1.00006 6.1343e-05 0.0 
1.07737 -0.261864 0.0 
1.00008 -0.000126247 0.0 
0 0 0.0 
1.00206 -0.00209267 0.0 
1.00134 0.000367581 0.0 
1.00029 -0.000231341 0.0 
1.00171 -0.00091404 0.0 
1.0006 -0.000716374 0.0 
1.00064 -0.00178938 0.0 
1.00711 -0.00214659 0.0 
0.582701 0.00465811 0.0 
0.999962 -0.000119969 0.0 
1.0009 -0.000126725 0.0 
1.0004 0.000707649 0.0 
1.00009 -0.000353864 0.0 
1.00038 -9.52509e-05 0.0 
1.00152 -0.000789085 0.0 
1.00143 -0.000263159 0.0 
0.999987 0.000198708 0.0 
1.00732 0.00275539 0.0 
1.00174 -0.00133378 0.0 
0 0 0.0 
1.01507 0.00673526 0.0 
1.0016 0.000270999 0.0 
0.999843 -5.45538e-06 0.0 
1.00154 0.000357996 0.0 
1.00169 -0.00249119 0.0 
1.00099 0.000698531 0.0 
1.00094 0.00140728 0.0 
0.99663 0.00563937 0.0 
9.08335e-08 -4.51022e-08 0.0 
0.689176 0.00841334 0.0 
1.00125 0.000359507 0.0 
0.0541177 -0.00793089 0.0 
1.00126 -0.00089117 0.0 
1.00432 2.71943e-05 0.0 
1.00137 -0.000442797 0.0 
0.999881 -0.000505218 0.0 
1.00078 -0.000340101 0.0 
1.00406 0.00504194 0.0 
0.99331 -0.000721307 0.0 
1.00507 -0.0132935 0.0 
1.00177 -0.000311248 0.0 
1.00197 0.00112924 0.0 
0.655066 -0.0525711 0.0 
1.0008 0.000587278 0.0 
1.00012 0.000134375 0.0 
0.29904 0.0215398 0.0 
1.99701e-08 8.06554e-11 0.0 
1.00142 -0.000715032 0.0 
1.00103 0.000902024 0.0 
1.00124 0.000140003 0.0 
1.00131 -0.000262127 0.0 
0.394069 -0.0242388 0.0 
0 0 0.0 
1.00236 0.000200694 0.0 
1.00149 -0.000545414 0.0 
0.998049 0.000745471 0.0 
1.00117 0.000257932 0.0 
1.03347 0.0447717 0.0 
0.0353786 0.00161711 0.0 
1.00186 0.00028111 0.0 
0.999997 -0.000132727 0.0 
1.00147 -0.00202037 0.0 
0.99887 -0.00369749 0.0 
1.0017 -0.000317494 0.0 
1.02443 -0.0232345 0.0 
1.00147 0.00110026 0.0 
1.00445 -0.00245101 0.0 
1.00136 -0.000525131 0.0 
1.00118 -0.000848595 0.0 
1.00099 -0.00109111 0.0 
0.59176 0.0399181 0.0 
1.00058 3.74081e-05 0.0 
1.00182 0.000920038 0.0 
1.00158 0.000291804 0.0 
1.00132 -0.000525735 0.0 
0.0150979 -0.000119394 0.0 
1.00089 -0.000104724 0.0 
1.0001 0.00016713 0.0 
0 0 0.0 
0.999488 0.00143196 0.0 
0.99971 0.00428687 0.0 
1.00429 -0.00135723 0.0 
2.85315e-08 -5.7268e-10 0.0 
1.00303 0.0021072 0.0 
1.00656 -0.000672921 0.0 
1.00749 -0.000505389 0.0 
1.00119 -0.000965396 0.0 
1.0019 -0.00132696 0.0 
1.00086 -7.4367e-05 0.0 
1.00073 4.30622e-05 0.0 
0 0 0.0 
1.00138 -0.000418846 0.0 
0.999969 9.42415e-05 0.0 
0.99951 0.00254578 0.0 
1.00316 0.00027664 0.0 
1.00035 -0.000562711 0.0 
0 0 0.0 
0.994789 -0.00105951 0.0 
1.00085 -0.000752857 0.0 
1.0012 0.000339963 0.0 
1.00013 -0.000379616 0.0 
0.999237 0.00157477 0.0 
1.00134 -0.000372049 0.0 
1.00147 0.000480199 0.0 
1.00004 0.000219136 0.0 
1.00129 0.00127548 0.0 
1.00072 0.000478527 0.0 
1.00052 -0.000798131 0.0 
1.00035 5.47143e-05 0.0 
0.99871 -0.0054466 0.0 
1.00138 0.000324931 0.0 
0.102864 -0.00541847 0.0 
1.0008 8.12093e-05 0.0 
0 0 0.0 
1.00008 0.000235008 0.0 
1.00121 3.31476e-05 0.0 
0.999108 -0.000337449 0.0 
1.00078 -2.21605e-05 0.0 
1.00145 0.000330705 0.0 
1.00335 -0.00146809 0.0 
1.00096 0.000178 0.0 
1.00063 -0.00011367 0.0 
1.00133 0.000288333 0.0 
0.0315553 0.00198296 0.0 
0.999701 0.004433 0.0 
1.00005 -7.6519e-05 0.0 
1.00206 -0.000137992 0.0 
1.00094 -0.00079017 0.0 
0.00949629 -0.0004298 0.0 
1.0973 0.00167896 0.0 
1.00122 -0.000185958 0.0 
1.00139 0.00494518 0.0 
0.999852 -0.00329182 0.0 
1.01348 0.00720579 0.0 
1.00137 -0.000362556 0.0 
1.00142 0.000603895 0.0 
1.001 -0.000184628 0.0 
0.0478107 0.00330722 0.0 
1.00122 -0.000178519 0.0 
1.0011 0.00257821 0.0 
1.00143 0.000432397 0.0 
0.0179874 0.000326962 0.0 
0.0470476 0.00383031 0.0 
1.00024 0.00326505 0.0 
1.00007 4.58266e-05 0.0 
1.00132 0.00108703 0.0 
1.00071 1.83137e-05 0.0 
1.00143 -0.000227431 0.0 
0.999472 -0.000728633 0.0 
1.0007 1.99348e-05 0.0 
1.00004 8.03359e-05 0.0 
0.98895 0.0101838 0.0 
0.326818 0.02468 0.0 
0.999693 -0.00348416 0.0 
1.00847 0.00249021 0.0 
1.00005 -0.000126782 0.0 
1.00158 -0.00199164 0.0 
1.00099 -0.000148262 0.0 
1.00141 0.000456988 0.0 
0.998882 0.00235744 0.0 
1.00118 0.000184423 0.0 
1.00095 0.000940989 0.0 
0 0 0.0 
1.00062 0.00139346 0.0 
0.999126 -0.000174576 0.0 
0.999593 0.0015214 0.0 
1.00099 -0.000228688 0.0 
1.00276 0.000956771 0.0 
1.00056 0.000126286 0.0 
0.999941 8.16555e-05 0.0 
0 0 0.0 
1.00431 -0.00200497 0.0 
1.00125 -0.000356133 0.0 
1.00079 -4.33215e-05 0.0 
1.00014 0.000312084 0.0 
1.00082 -3.39685e-05 0.0 
1.00114 -0.000427049 0.0 
1.00124 0.00112624 0.0 
1.00153 0.00202339 0.0 
0.988297 -0.00489602 0.0 
1.00103 0.000422988 0.0 
1.00069 -0.000155618 0.0 
1.00005 -0.000310748 0.0 
1.00122 0.00146306 0.0 
1.00649 -0.00353424 0.0 
1.00068 5.33098e-05 0.0 
1.0015 -0.00859646 0.0 
1.00042 4.99528e-05 0.0 
1.00082 -3.33843e-05 0.0 
1.00083 0.000107622 0.0 
1.00083 4.19967e-05 0.0 
1.00128 -0.000199787 0.0 
1.00114 -0.000172008 0.0 
1.0004 0 0.0 
1.00132 -0.00391489 0.0 
1.00065 0 0.0 
0.00832008 0.000248195 0.0 
0.356242 0.0261528 0.0 
1.00306 -0.00482888 0.0 
0.987928 0.000965081 0.0 
1.00066 0.000308311 0.0 
1.00017 0.0018498 0.0 
0.994402 -0.00402932 0.0 
1.00065 0.0012585 0.0 
0.938167 -0.000452343 0.0 
1.00067 0.000243782 0.0 
1.00273 -0.00079863 0.0 
1.00002 0.000426106 0.0 
1.00325 0.000495665 0.0 
1.00061 -0.000176498 0.0 
1.00146 0.000595096 0.0 
1.01481 0.0186115 0.0 
1.00088 6.4085e-05 0.0 
1.00129 0.000487978 0.0 
1.00247 -0.0103325 0.0 
1.00151 0.000348583 0.0 
1.00153 0.000185528 0.0 
1.00009 0.000308885 0.0 
0 0 0.0 
1.0007 -5.46978e-06 0.0 
0.999822 0.000849728 0.0 
1.00068 2.91781e-06 0.0 
1.00119 0.000592827 0.0 
1.00135 0.000846324 0.0 
1.0004 -0.00255734 0.0 
0 0 0.0 
0 0 0.0 
0.997609 0.00432546 0.0 
1.00051 0.000455021 0.0 
1.00026 -0.00030903 0.0 
1.00009 -7.79391e-05 0.0 
1.00274 -0.00233295 0.0 
0.984781 -0.000404297 0.0 
1.0009 -0.000578288 0.0 
1.00152 -0.000652863 0.0 
1.00404 0.00664245 0.0 
1.00165 0.000740791 0.0 
1.00204 0.00362549 0.0 
0 0 0.0 
1.00217 0.000816637 0.0 
0.999849 -0.000361319 0.0 
1.00029 -0.0016933 0.0 
1.00017 -0.00256155 0.0 
0.999727 -0.00112886 0.0 
0.999838 9.46303e-05 0.0 
0.999768 -0.000478424 0.0 
1.00125 -0.00114632 0.0 
0.85369 -0.000405625 0.0 
1.00183 0.000412512 0.0 
1.00082 -0.000132549 0.0 
1.00068 1.66488e-05 0.0 
0.998447 0.00120888 0.0 
1.01282 -0.00268269 0.0 
0.0596758 0.00207496 0.0 
1.00286 0.00144847 0.0 
1.00358 2.23863e-05 0.0 
1.00001 0.000109029 0.0 
0.999976 -0.000215522 0.0 
1.00178 -0.000164172 0.0 
1.00295 -0.00164495 0.0 
1.00058 -0.000513502 0.0 
1.00016 4.98104e-05 0.0 
0.997721 0.00142779 0.0 
1.0008 -0.000429809 0.0 
3.00266e-08 -6.44844e-09 0.0 
1.00033 0.000185562 0.0 
1.00273 -0.000278207 0.0 
1.00368 0.00168489 0.0 
0.0413551 0.00225655 0.0 
1.00094 3.17451e-05 0.0 
1.00142 0.00615432 0.0 
1.00132 -0.000384254 0.0 
1.00034 -0.00094564 0.0 
0.999986 -1.16093e-05 0.0 
0.997955 -0.00179618 0.0 
1.00119 0.000324096 0.0 
1.00105 0.000134507 0.0 
1.00002 0.0137538 0.0 
1.00027 -0.000478646 0.0 
0.999674 -0.00260028 0.0 
1.00008 -0.00140504 0.0 
1.00166 0.000518653 0.0 
1.00039 0.000582396 0.0 
1.00121 0.000223505 0.0 
1.00084 -0.00265567 0.0 
1.0021 0.000580291 0.0 
1.00133 -0.00028719 0.0 
1.00011 0.000347447 0.0 
1.00069 -0.000116777 0.0 
1.00263 -0.000477403 0.0 
0.999826 0.0022486 0.0 
1.02881 -0.0557454 0.0 
1.00038 0.00126806 0.0 
1.00003 -0.000198266 0.0 
1.00038 -0.00105466 0.0 
1.00519 -0.00158313 0.0 
0.999774 0.000365819 0.0 
1.00095 -0.00012255 0.0 
1.00023 -0.000521542 0.0 
1.00139 0.000443532 0.0 
1.00176 -0.00162036 0.0 
1.00123 0.00215051 0.0 
1.00172 0.00137945 0.0 
0 0 0.0 
1.0007 3.1566e-05 0.0 
1.00549 0.00276523 0.0 
0.0122183 -0.000194414 0.0 
1.00129 9.7884e-05 0.0 