<VTKFile type="UnstructuredGrid" version="0.1" byte_order="LittleEndian">
  <UnstructuredGrid>
    <Piece NumberOfPoints="9712" NumberOfCells="19403">
      <Points>
        <DataArray type = "Float64" NumberOfComponents="3" format="ascii">
-5 -7 0.0 
15.5 -7 0.0 
15.5 7 0.0 
-5 7 0.0 
-1.6546 1.77742 0.0 
-2.13867 1.86504 0.0 
-1.83467 1.79143 0.0 
1.47969 -2.21179 0.0 
1.36003 -2.38618 0.0 
1.4346 -2.45048 0.0 
-2.04214 1.94165 0.0 
-0.20425 1.17338 0.0 
-2.07648 1.81911 0.0 
-2.00827 1.89081 0.0 
-2.05492 1.98872 0.0 
0.192693 0.536219 0.0 
0.154285 1.75648 0.0 
1.1379 -1.62057 0.0 
-2.11226 1.96977 0.0 
-1.74119 1.75327 0.0 
1.14499 -1.58184 0.0 
-1.94373 2.37229 0.0 
1.50619 -0.664239 0.0 
1.99658 -1.76705 0.0 
1.7229 -1.18344 0.0 
-1.97759 2.52091 0.0 
-0.768046 0.387136 0.0 
1.32657 -1.43969 0.0 
1.90142 0.24821 0.0 
-0.93264 1.51038 0.0 
1.09557 0.967223 0.0 
0.627111 0.757352 0.0 
-2.05707 2.31394 0.0 
1.34027 -2.45136 0.0 
-0.725097 0.397516 0.0 
-0.666094 2.30428 0.0 
-0.73829 -0.279965 0.0 
1.73336 -1.08822 0.0 
1.88466 -1.24421 0.0 
1.50539 -1.23752 0.0 
1.65978 -1.30759 0.0 
-0.0409718 0.542603 0.0 
1.6005 -1.1227 0.0 
1.78439 -0.941488 0.0 
1.86015 -1.54236 0.0 
1.49308 -1.40058 0.0 
2.34892 -1.47149 0.0 
2.13832 -1.3246 0.0 
1.73061 0.751302 0.0 
-0.580328 0.526903 0.0 
1.51013 -2.1595 0.0 
-1.65424 3.45779 0.0 
-1.51397 2.46352 0.0 
1.42773 -2.17867 0.0 
0.304353 0.497878 0.0 
2.24628 0.228293 0.0 
1.51258 -2.27933 0.0 
-1.60346 3.44299 0.0 
-1.71408 2.36227 0.0 
2.17421 0.530405 0.0 
2.42 0.316451 0.0 
-1.63642 3.31911 0.0 
2.53942 -0.995036 0.0 
0.750003 0.810439 0.0 
2.04736 0.40918 0.0 
1.19615 -1.50641 0.0 
2.13474 0.494063 0.0 
0.547924 0.306722 0.0 
-0.2059 0.361394 0.0 
2.2127 0.547693 0.0 
1.41442 -0.597105 0.0 
1.52233 -1.46252 0.0 
-1.84114 2.53924 0.0 
-5 -2.53894 0.0 
2.32127 0.371156 0.0 
-1.69186 3.33379 0.0 
-0.964779 0.566136 0.0 
-1.81311 2.48387 0.0 
-1.78557 3.38304 0.0 
1.48278 0.914136 0.0 
2.51531 -1.89689 0.0 
1.20982 -0.330514 0.0 
0.408434 0.319657 0.0 
0.95023 0.60993 0.0 
-0.752349 0.440796 0.0 
-0.998248 0.564019 0.0 
-1.73165 3.36299 0.0 
1.24353 -1.49063 0.0 
0.942095 0.817189 0.0 
-1.77816 2.47096 0.0 
2.48183 -1.95479 0.0 
1.33574 -1.77854 0.0 
0.823335 1.12085 0.0 
-0.36308 0.598468 0.0 
0.745466 0.783414 0.0 
-1.88344 2.8521 0.0 
-1.79794 3.52221 0.0 
3.0087 0.272815 0.0 
-1.81486 2.66014 0.0 
0.375911 -0.403668 0.0 
-0.68323 0.487288 0.0 
-0.34187 -0.274923 0.0 
-0.293875 -0.201368 0.0 
1.61018 -1.767 0.0 
-0.448275 -0.347267 0.0 
-1.08687 0.352015 0.0 
1.29257 -1.76345 0.0 
1.67658 -1.49551 0.0 
1.19193 0.533009 0.0 
1.21582 -1.91654 0.0 
-0.36438 -0.346225 0.0 
-0.92534 0.330346 0.0 
2.3836 0.287756 0.0 
1.68841 0.639887 0.0 
1.59001 -1.89458 0.0 
1.14818 -1.92143 0.0 
1.28996 -2.19426 0.0 
1.37603 -1.8763 0.0 
1.23834 -2.09141 0.0 
1.11702 -2.06287 0.0 
0.691829 0.463808 0.0 
1.46523 -2.03459 0.0 
-0.123547 0.424486 0.0 
-1.3311 2.12174 0.0 
1.08169 -1.90074 0.0 
1.87975 -2.15971 0.0 
1.10131 -1.78593 0.0 
1.13722 0.534683 0.0 
1.42465 -1.59031 0.0 
-1.45435 2.47344 0.0 
1.41998 -1.98207 0.0 
0.463917 1.8787 0.0 
-1.72896 2.89571 0.0 
1.12419 -1.84975 0.0 
1.59054 -1.20634 0.0 
0.46124 0.621002 0.0 
0.806438 -1.00204 0.0 
2.1804 0.349761 0.0 
2.21142 -1.6418 0.0 
1.10152 -0.274558 0.0 
2.23388 0.387302 0.0 
0.137769 0.567007 0.0 
1.88736 0.267391 0.0 
1.26821 -1.94267 0.0 
0.21033 -0.605707 0.0 
2.61094 -1.50046 0.0 
0.819837 0.743337 0.0 
-1.4303 2.07799 0.0 
1.82013 0.322126 0.0 
-1.47649 2.2099 0.0 
1.15745 -0.274223 0.0 
-1.81198 2.24994 0.0 
2.34337 -1.67775 0.0 
-1.13329 1.37877 0.0 
-0.828215 1.05292 0.0 
2.46752 -1.53452 0.0 
-1.69915 2.18529 0.0 
-0.404416 -0.286271 0.0 
-1.23501 1.31766 0.0 
2.11757 -1.50659 0.0 
-1.08535 1.28274 0.0 
2.58548 -1.70783 0.0 
0.24729 -0.572345 0.0 
-1.66963 2.25319 0.0 
1.58322 -1.62308 0.0 
-0.367923 -0.306026 0.0 
0.391521 1.44485 0.0 
1.88977 -2.46319 0.0 
1.5943 -1.53613 0.0 
-0.357143 -0.23651 0.0 
0.82621 0.80563 0.0 
-1.59261 2.31884 0.0 
-0.47244 -0.307516 0.0 
-0.40334 -0.326688 0.0 
-2.00063 2.11543 0.0 
1.55514 -1.95078 0.0 
-1.40431 2.26352 0.0 
-0.0265928 0.573714 0.0 
1.17093 1.10579 0.0 
-1.77907 2.22111 0.0 
0.682788 0.329642 0.0 
-0.54475 2.15572 0.0 
-0.288592 0.289433 0.0 
-1.43199 2.16349 0.0 
-1.45029 2.25134 0.0 
1.5535 -1.79992 0.0 
-1.06406 1.08381 0.0 
1.72954 1.44966 0.0 
0.582806 0.515814 0.0 
0.582876 -0.679913 0.0 
1.32351 -0.355916 0.0 
-0.47505 0.577092 0.0 
-0.371167 0.227715 0.0 
1.52235 -1.8529 0.0 
-0.429822 -0.244811 0.0 
-0.53237 -0.24648 0.0 
-0.393983 -0.210364 0.0 
0.652895 0.317361 0.0 
1.55812 -1.70765 0.0 
1.63021 0.325622 0.0 
0.442731 0.358729 0.0 
1.22925 -1.85192 0.0 
1.43517 -1.79082 0.0 
1.39317 -1.6984 0.0 
1.62965 0.295952 0.0 
0.905462 0.793465 0.0 
1.04036 -1.64811 0.0 
2.1131 -1.72466 0.0 
-0.743911 0.369492 0.0 
1.14427 -1.99314 0.0 
1.26033 -2.0209 0.0 
-1.70955 2.07308 0.0 
0.910023 -1.62976 0.0 
-0.313059 -0.0954838 0.0 
-1.77334 2.3988 0.0 
-0.311958 -0.24042 0.0 
2.53315 0.325608 0.0 
-0.273728 -0.226719 0.0 
-0.646401 0.379627 0.0 
1.52426 0.616074 0.0 
2.21703 -1.79499 0.0 
2.71108 0.312216 0.0 
0.759924 1.093 0.0 
-1.69271 2.12368 0.0 
0.255794 0.540969 0.0 
0.0534699 0.562158 0.0 
-1.5679 2.22408 0.0 
-1.66906 2.45165 0.0 
-1.51895 2.09449 0.0 
2.16948 0.408238 0.0 
-0.818806 0.680638 0.0 
-0.826868 0.642087 0.0 
0.519855 0.276992 0.0 
-0.716682 1.18602 0.0 
-0.649974 -0.148775 0.0 
0.457368 0.256619 0.0 
0.517407 0.248194 0.0 
0.327129 0.39802 0.0 
0.533249 -0.878832 0.0 
-0.870735 0.634904 0.0 
1.19219 1.07557 0.0 
2.35922 0.366028 0.0 
-1.66911 3.66723 0.0 
-0.857603 1.54934 0.0 
-0.379189 2.30131 0.0 
-0.941007 1.36523 0.0 
-1.58662 2.49682 0.0 
-0.545297 0.352587 0.0 
0.327944 -0.744683 0.0 
-0.312756 0.524741 0.0 
-0.107843 0.506233 0.0 
2.13378 -2.36584 0.0 
1.52689 0.686953 0.0 
-0.119983 0.327909 0.0 
1.02161 -1.53072 0.0 
1.51507 0.39695 0.0 
-0.674484 1.02605 0.0 
-0.564724 -0.148435 0.0 
0.409388 0.290913 0.0 
0.252349 0.30842 0.0 
-1.09282 1.45998 0.0 
1.45674 -1.54484 0.0 
-0.266777 0.782169 0.0 
0.91327 -0.874389 0.0 
1.01208 1.13309 0.0 
-0.897136 1.35063 0.0 
-0.846484 0.489353 0.0 
1.47563 0.663768 0.0 
-1.22282 2.05021 0.0 
0.348906 0.416714 0.0 
1.41913 0.964648 0.0 
0.933289 -0.839038 0.0 
-1.85066 1.40221 0.0 
0.142477 1.99435 0.0 
-0.717809 0.341194 0.0 
-2.21177 1.41584 0.0 
0.396571 0.350929 0.0 
1.25171 -1.60721 0.0 
0.736798 0.393502 0.0 
-0.661427 0.19031 0.0 
2.18751 -2.32769 0.0 
-1.00908 1.6747 0.0 
2.21416 -2.07269 0.0 
-0.779194 0.642011 0.0 
-1.02312 1.3939 0.0 
2.08809 -2.24876 0.0 
-5 -4.48794 0.0 
1.61792 -1.46215 0.0 
-0.974627 1.38947 0.0 
1.81166 -2.48446 0.0 
-1.03635 1.47474 0.0 
0.869004 -1.74424 0.0 
0.956579 -1.78598 0.0 
1.07495 0.540689 0.0 
-1.08005 1.37763 0.0 
0.914755 -0.803058 0.0 
0.611759 -0.305322 0.0 
1.70043 -1.41356 0.0 
0.75708 -0.631542 0.0 
1.21215 1.01979 0.0 
-0.586902 0.440014 0.0 
1.9251 -2.56336 0.0 
-1.58261 1.91091 0.0 
-0.746541 1.26087 0.0 
-1.49915 1.13657 0.0 
-1.46675 0.971536 0.0 
-1.05881 0.930935 0.0 
0.71826 0.415078 0.0 
-0.701697 0.526982 0.0 
-1.56194 2.05157 0.0 
1.15988 0.991244 0.0 
1.38676 0.949615 0.0 
-1.61697 2.02689 0.0 
1.13748 -0.357331 0.0 
-1.8456 2.04561 0.0 
0.253686 -0.756334 0.0 
-1.53603 1.86509 0.0 
-1.43465 0.924137 0.0 
-1.00273 1.27416 0.0 
-1.03063 1.5132 0.0 
-1.32483 1.94769 0.0 
-0.965552 1.61445 0.0 
-0.239859 -0.245939 0.0 
-5 3.01776 0.0 
-5 -0.248741 0.0 
0.517491 1.87079 0.0 
-1.18776 1.8875 0.0 
2.27458 0.36201 0.0 
1.9794 0.331487 0.0 
0.503086 0.510306 0.0 
1.26387 -0.370702 0.0 
1.24483 0.550197 0.0 
1.12871 0.979556 0.0 
-1.48659 1.83259 0.0 
1.0672 0.958366 0.0 
-1.16856 1.61214 0.0 
-0.218637 -0.230696 0.0 
-5 1.81431 0.0 
1.37014 1.04658 0.0 
0.0950623 0.557621 0.0 
-1.23613 1.67303 0.0 
0.953731 -0.709843 0.0 
2.07568 -1.85385 0.0 
2.10836 -1.82014 0.0 
-0.994952 1.33552 0.0 
-1.86986 1.52312 0.0 
0.515812 0.447542 0.0 
0.842446 0.992035 0.0 
-1.42353 1.8223 0.0 
2.091 0.354014 0.0 
-0.937663 0.401428 0.0 
-1.69305 1.41997 0.0 
-1.82465 1.55127 0.0 
2.15192 0.384657 0.0 
-1.17972 1.37998 0.0 
-0.718866 -0.0130647 0.0 
-0.927867 0.290435 0.0 
1.56509 0.300406 0.0 
-5 -3.04052 0.0 
9.98027 -7 0.0 
0.176009 0.694641 0.0 
0.597997 -0.559941 0.0 
-0.546583 0.4849 0.0 
0.602022 -0.657834 0.0 
2.17737 0.379672 0.0 
1.89809 0.287017 0.0 
-1.58883 1.35796 0.0 
-1.2284 1.37063 0.0 
-1.43937 1.35342 0.0 
-1.59664 1.47263 0.0 
0.577431 -0.368705 0.0 
1.5263 -1.51093 0.0 
0.479666 0.796509 0.0 
0.894995 1.01463 0.0 
2.22312 0.363016 0.0 
-0.320562 0.726481 0.0 
-1.30188 2.41386 0.0 
0.43802 0.434693 0.0 
-0.761697 0.762024 0.0 
1.45688 -1.49591 0.0 
-0.65072 0.676835 0.0 
1.6097 -1.41509 0.0 
2.25768 0.399237 0.0 
1.85518 0.299709 0.0 
2.14618 0.290757 0.0 
2.25222 0.371677 0.0 
-1.93063 2.91367 0.0 
1.52717 0.319618 0.0 
1.67964 -1.62237 0.0 
1.35962 -0.439169 0.0 
1.63007 -1.54335 0.0 
-5 -0.764504 0.0 
-1.61377 2.62271 0.0 
1.73865 -1.57725 0.0 
-0.908306 1.23669 0.0 
1.60766 0.330292 0.0 
1.82509 -1.63054 0.0 
1.90521 0.312457 0.0 
1.98719 -1.6488 0.0 
-0.528791 0.39225 0.0 
1.94978 -2.39003 0.0 
-0.472559 0.718465 0.0 
-1.28058 2.26572 0.0 
0.881581 -0.556282 0.0 
2.26369 0.42542 0.0 
0.917309 -1.69962 0.0 
0.853954 -1.60945 0.0 
1.30086 -0.404316 0.0 
1.99565 -2.46852 0.0 
1.49445 -1.47573 0.0 
1.68285 0.863315 0.0 
2.03074 -2.37549 0.0 
2.52279 -0.506167 0.0 
2.56049 -1.76899 0.0 
-1.52889 2.56597 0.0 
2.81136 -0.570221 0.0 
1.3688 -1.46095 0.0 
1.29524 -0.373946 0.0 
-0.350504 0.671928 0.0 
-0.590282 0.564035 0.0 
-0.054366 2.16706 0.0 
1.50819 1.22548 0.0 
-0.548222 0.453941 0.0 
2.19936 -2.5207 0.0 
12.2704 -7 0.0 
1.6811 -1.36761 0.0 
-0.449261 0.559535 0.0 
0.537017 -0.527614 0.0 
-0.00733391 0.553304 0.0 
0.494109 -0.356396 0.0 
-0.7939 0.0827441 0.0 
0.39888 0.467333 0.0 
-1.04288 1.34095 0.0 
0.605019 1.02824 0.0 
0.847559 0.374727 0.0 
1.00336 0.618307 0.0 
2.1955 0.399186 0.0 
0.656973 0.401158 0.0 
-0.998431 2.73564 0.0 
[...]
<PointData>
  <DataArray type = "Float64" Name="VitesseP1" NumberOfComponents="3" format="ascii">
1 0 0.0 
1.03443 0 0.0 
1.00837 0 0.0 
1 0 0.0 
0.994495 0.0163594 0.0 
0.996835 0.011632 0.0 
0.995393 0.0141485 0.0 
1.03383 -0.00451648 0.0 
1.03375 -0.00890259 0.0 
1.03591 -0.00820369 0.0 
0.997682 0.0125829 0.0 
0.98589 0.0724023 0.0 
0.996526 0.0119702 0.0 
0.996731 0.0127749 0.0 
0.998854 0.012588 0.0 
0.993662 0.216576 0.0 
1.0173 0.0546619 0.0 
1.05209 -0.0223106 0.0 
0.998782 0.011996 0.0 
0.994924 0.0150819 0.0 
1.05442 -0.022966 0.0 
0.998759 0.0139688 0.0 
1.15426 -0.0131093 0.0 
1.04855 0.0123338 0.0 
1.05601 0.00311646 0.0 
0.998717 0.0135537 0.0 
0.944745 0.00919495 0.0 
1.05822 -0.0176238 0.0 
0.121696 0.0454181 0.0 
0.988497 0.0319089 0.0 
1.13763 0.0587519 0.0 
1.10988 0.137256 0.0 
0.998763 0.0129484 0.0 
1.02647 -0.0208925 0.0 
0.94162 0.0127475 0.0 
1.00516 0.031357 0.0 
0.937573 -0.0501953 0.0 
1.0755 0.00426049 0.0 
1.0493 0.0124646 0.0 
1.04981 -0.0102694 0.0 
1.05221 -0.000752921 0.0 
0.92775 0.150947 0.0 
1.06774 -0.00495693 0.0 
1.11585 0.00924466 0.0 
1.06162 0.00891532 0.0 
1.05821 -0.00952994 0.0 
1.05192 0.0330103 0.0 
1.04921 0.0257974 0.0 
1.19258 -0.000908779 0.0 
0.939855 0.0358694 0.0 
1.03409 -0.00389658 0.0 
1.00252 0.0130336 0.0 
0.999663 0.018216 0.0 
1.03368 -0.00590669 0.0 
1.03959 0.241034 0.0 
0.0986291 -0.0028794 0.0 
1.03347 -0.00365478 0.0 
1.00275 0.0134511 0.0 
0.998965 0.0162687 0.0 
1.21708 -0.0867334 0.0 
0.439987 -0.127922 0.0 
1.00234 0.0137085 0.0 
1.0776 0.0630048 0.0 
1.12189 0.114711 0.0 
0.78242 -0.0226804 0.0 
1.05708 -0.0225854 0.0 
1.2035 -0.0776758 0.0 
0.566595 0.134319 0.0 
0.863596 0.0854287 0.0 
1.20883 -0.0942789 0.0 
1.19046 -0.0232789 0.0 
1.06101 -0.00757833 0.0 
0.99892 0.0147229 0.0 
1 0 0.0 
0.688801 -0.112829 0.0 
1.0021 0.0132642 0.0 
0.96823 0.0110805 0.0 
0.998942 0.0150802 0.0 
1.00175 0.0124058 0.0 
1.16529 0.0181089 0.0 
1.03492 0.0172424 0.0 
0.794735 -0.0353878 0.0 
0.953963 0.261881 0.0 
1.17372 0.105894 0.0 
0.946389 0.0146784 0.0 
0.970031 0.00939394 0.0 
1.00203 0.0128527 0.0 
1.05796 -0.0207822 0.0 
1.14163 0.0892508 0.0 
0.999004 0.0154345 0.0 
1.04064 0.0219488 0.0 
1.0472 -0.0121982 0.0 
1.09245 0.0746252 0.0 
0.935908 0.0699715 0.0 
1.12451 0.118801 0.0 
0.999758 0.0135237 0.0 
1.00233 0.01163 0.0 
0.177402 -0.0914727 0.0 
0.999105 0.0146708 0.0 
1.19593 -0.231254 0.0 
0.944323 0.0233661 0.0 
0.919752 -0.087179 0.0 
0.916838 -0.0734458 0.0 
1.05007 -0.00211054 0.0 
0.925108 -0.0770403 0.0 
0.967185 -0.00754237 0.0 
1.04743 -0.0139497 0.0 
1.06214 0.000254532 0.0 
1.19947 0.0698727 0.0 
1.03851 -0.0141429 0.0 
0.92094 -0.0873241 0.0 
0.954941 -0.00304356 0.0 
0.292175 -0.0965923 0.0 
1.20239 0.00795197 0.0 
1.04294 -0.00244337 0.0 
1.03729 -0.0158965 0.0 
1.03253 -0.00893662 0.0 
1.04249 -0.00968664 0.0 
1.03272 -0.0114106 0.0 
1.03141 -0.0152744 0.0 
1.168 0.178432 0.0 
1.03575 -0.00565759 0.0 
0.878208 0.125744 0.0 
0.998917 0.021694 0.0 
1.0371 -0.0180244 0.0 
1.03382 0.00618765 0.0 
1.04274 -0.0197995 0.0 
1.19852 0.0783858 0.0 
1.05916 -0.0110694 0.0 
0.999905 0.0188543 0.0 
1.03723 -0.00737922 0.0 
1.02519 0.0480448 0.0 
1.00063 0.0146084 0.0 
1.04014 -0.0178482 0.0 
1.05282 -0.00519173 0.0 
1.0888 0.185564 0.0 
1.06763 -0.0674988 0.0 
0.475183 -0.0295541 0.0 
1.05186 0.0221068 0.0 
0.470971 -0.0350146 0.0 
0.743473 -0.0820992 0.0 
0.978809 0.195188 0.0 
0.142418 0.0424553 0.0 
1.03776 -0.0122953 0.0 
1.03239 -0.157522 0.0 
1.03849 0.0455193 0.0 
1.13889 0.113627 0.0 
0.998644 0.0202764 0.0 
0.215628 0.0456294 0.0 
0.998805 0.0193627 0.0 
0.423937 -0.0141679 0.0 
0.998662 0.015327 0.0 
1.04592 0.0253605 0.0 
0.98501 0.0251234 0.0 
0.973434 0.034755 0.0 
1.04647 0.0358484 0.0 
0.998483 0.0165907 0.0 
0.923635 -0.0783378 0.0 
0.984052 0.0215386 0.0 
1.05828 0.0212485 0.0 
0.981463 0.0259494 0.0 
1.03181 0.0288968 0.0 
1.04206 -0.167986 0.0 
0.998762 0.0168953 0.0 
1.05841 -0.00377331 0.0 
0.921093 -0.0846606 0.0 
1.03129 0.0688526 0.0 
1.03747 0.00395594 0.0 
1.06206 -0.00365161 0.0 
0.917429 -0.0805648 0.0 
1.13158 0.105681 0.0 
0.999065 0.017701 0.0 
0.928404 -0.0715344 0.0 
0.923043 -0.081347 0.0 
0.998553 0.0133376 0.0 
1.03958 -0.00342975 0.0 
0.999292 0.0202128 0.0 
0.93977 0.150803 0.0 
1.12256 0.0408916 0.0 
0.998602 0.0156879 0.0 
0.647448 0.109352 0.0 
1.00569 0.0354941 0.0 
0.864103 0.0456013 0.0 
0.998763 0.0200826 0.0 
0.999104 0.01962 0.0 
1.04787 -0.00411848 0.0 
0.973915 0.0244032 0.0 
1.06136 -0.0264938 0.0 
1.1436 0.195018 0.0 
1.11048 -0.123685 0.0 
0.915841 -0.0190788 0.0 
0.938561 0.0519709 0.0 
0.875753 0.0167362 0.0 
1.04485 -0.00494117 0.0 
0.924886 -0.071973 0.0 
0.933857 -0.0614804 0.0 
0.919738 -0.0731673 0.0 
0.593169 0.110015 0.0 
1.05327 -0.00441269 0.0 
0.143187 0.0140707 0.0 
1.0419 0.262974 0.0 
1.04183 -0.0147037 0.0 
1.04763 -0.00849695 0.0 
1.05243 -0.0110645 0.0 
0.105082 0.0137061 0.0 
1.14132 0.0962643 0.0 
1.04826 -0.0251014 0.0 
1.04922 0.0169627 0.0 
0.941656 0.00903044 0.0 
1.03371 -0.0151127 0.0 
1.03434 -0.0115734 0.0 
0.998638 0.0164573 0.0 
1.04531 -0.0298354 0.0 
0.899834 -0.0646669 0.0 
0.998936 0.0155974 0.0 
0.910741 -0.0845775 0.0 
0.516163 -0.174518 0.0 
0.889035 -0.0828176 0.0 
0.93293 0.0164729 0.0 
1.19983 0.0263803 0.0 
1.0441 0.0189662 0.0 
0.495995 -0.149642 0.0 
1.09258 0.0825051 0.0 
0.998443 0.0166688 0.0 
1.0205 0.22114 0.0 
0.952498 0.176299 0.0 
0.99875 0.0181541 0.0 
0.999201 0.0165677 0.0 
0.998625 0.0189661 0.0 
0.847808 -0.063146 0.0 
0.967829 0.0254325 0.0 
0.965536 0.0229578 0.0 
0.420707 0.135932 0.0 
0.976283 0.0411766 0.0 
0.940936 -0.0434503 0.0 
0.306162 0.102174 0.0 
0.379854 0.185091 0.0 
1.06617 0.295051 0.0 
1.06989 -0.0982219 0.0 
0.967285 0.0199065 0.0 
1.13035 0.0404786 0.0 
0.682313 -0.123988 0.0 
1.00047 0.0123934 0.0 
0.990058 0.0342444 0.0 
1.00926 0.0361012 0.0 
0.983564 0.0315369 0.0 
0.999498 0.0173198 0.0 
0.91915 0.0216733 0.0 
1.05994 -0.127745 0.0 
0.919508 0.075559 0.0 
0.909533 0.131538 0.0 
1.03614 0.0156678 0.0 
1.18978 0.0232884 0.0 
0.830871 0.11662 0.0 
1.05272 -0.0292034 0.0 
0.642395 0.018663 0.0 
0.975778 0.0437269 0.0 
0.933407 -0.0493509 0.0 
0.707739 0.19433 0.0 
0.902535 0.338466 0.0 
0.987086 0.0267992 0.0 
1.06097 -0.0100084 0.0 
0.967447 0.0859043 0.0 
1.11225 -0.0695848 0.0 
1.1049 0.0559867 0.0 
0.982931 0.0331701 0.0 
0.956437 0.0125206 0.0 
1.19073 0.0298201 0.0 
0.99899 0.0237112 0.0 
1.08023 0.281802 0.0 
1.15775 0.0220499 0.0 
1.12275 -0.0702636 0.0 
0.994012 0.0106537 0.0 
1.01592 0.0479322 0.0 
0.937692 0.007929 0.0 
0.997186 0.00894006 0.0 
1.02255 0.282576 0.0 
1.05537 -0.0181184 0.0 
1.01273 0.147423 0.0 
0.925584 -0.00602235 0.0 
1.03234 0.0267962 0.0 
0.992571 0.0293437 0.0 
1.0337 0.0159966 0.0 
0.962969 0.0261129 0.0 
0.98481 0.0287667 0.0 
1.03058 0.00934223 0.0 
1 0 0.0 
1.06151 -0.00271782 0.0 
0.984517 0.0304033 0.0 
1.03686 0.00326297 0.0 
0.987356 0.0285814 0.0 
1.03873 -0.0274075 0.0 
1.03928 -0.0239812 0.0 
1.19524 0.0885513 0.0 
0.984626 0.0268017 0.0 
1.12876 -0.0748157 0.0 
0.923389 -0.143527 0.0 
1.05969 0.00146737 0.0 
1.12966 -0.10823 0.0 
1.1398 0.0418527 0.0 
0.931687 0.0276182 0.0 
1.03912 0.00822074 0.0 
0.995814 0.0178421 0.0 
0.979507 0.0395891 0.0 
0.983994 0.0116714 0.0 
0.995548 0.0109572 0.0 
0.990176 0.0217319 0.0 
1.09813 0.163322 0.0 
0.94884 0.0248979 0.0 
0.998608 0.0183262 0.0 
1.13964 0.0496863 0.0 
1.15721 0.0263621 0.0 
0.998358 0.0175597 0.0 
0.959575 -0.0496859 0.0 
0.999019 0.0148188 0.0 
1.04412 -0.124856 0.0 
0.994903 0.0184351 0.0 
1.00029 0.011616 0.0 
0.980583 0.028812 0.0 
0.988598 0.0288353 0.0 
0.996407 0.0220629 0.0 
0.991633 0.0307074 0.0 
0.883426 -0.104566 0.0 
1 0 0.0 
1 0 0.0 
1.02682 0.0473395 0.0 
0.995041 0.0247157 0.0 
0.601833 -0.0862397 0.0 
0.284652 0.033099 0.0 
1.11914 0.213134 0.0 
0.992522 -0.0334396 0.0 
1.20189 0.0624249 0.0 
1.13873 0.0540705 0.0 
0.994328 0.0191435 0.0 
1.13649 0.0626959 0.0 
0.991636 0.0251825 0.0 
0.949695 -0.162983 0.0 
1 0 0.0 
1.14665 0.0222622 0.0 
0.9629 0.188756 0.0 
0.992596 0.0237077 0.0 
1.14457 -0.0771652 0.0 
1.0431 0.0140139 0.0 
1.04445 0.0154273 0.0 
0.982669 0.0294879 0.0 
0.995291 0.0119064 0.0 
1.13198 0.228581 0.0 
1.11512 0.0848701 0.0 
0.994068 0.0202004 0.0 
0.44139 -0.000792399 0.0 
0.958609 0.00170369 0.0 
0.992023 0.0127074 0.0 
0.995217 0.0126249 0.0 
0.665129 -0.039636 0.0 
0.985369 0.0237419 0.0 
0.949332 -0.0284543 0.0 
0.953712 -0.00622627 0.0 
0.108435 0.0197167 0.0 
1 0 0.0 
1.03557 0 0.0 
1.00856 0.164377 0.0 
1.12079 -0.140525 0.0 
0.932454 0.0360261 0.0 
1.11473 -0.124856 0.0 
0.649761 -0.0474719 0.0 
0.16747 0.0412116 0.0 
0.989556 0.0134357 0.0 
0.985517 0.0222626 0.0 
0.987339 0.0165718 0.0 
0.991575 0.0148746 0.0 
1.11696 -0.169364 0.0 
1.06167 -0.00701921 0.0 
1.07977 0.143389 0.0 
1.11743 0.0774575 0.0 
0.576906 -0.0595783 0.0 
0.957062 0.0788854 0.0 
1.0004 0.020958 0.0 
1.11445 0.254218 0.0 
0.972455 0.0327871 0.0 
1.06103 -0.010564 0.0 
0.959575 0.0380392 0.0 
1.0597 -0.00333917 0.0 
0.842166 -0.100474 0.0 
0.17647 0.0430858 0.0 
0.163732 0.0213726 0.0 
0.650567 -0.0804797 0.0 
0.999739 0.0129505 0.0 
0.104655 0.0144562 0.0 
1.0587 0.000450185 0.0 
1.18092 -0.0274028 0.0 
1.06208 -0.00195342 0.0 
1 0 0.0 
0.999619 0.0166339 0.0 
1.06108 0.00313851 0.0 
0.978961 0.0323527 0.0 
0.151518 0.0178358 0.0 
1.05792 0.00674194 0.0 
0.214347 0.0349179 0.0 
1.05546 0.0133461 0.0 
0.920843 0.0282931 0.0 
1.03354 0.0047284 0.0 
0.957667 0.0582335 0.0 
0.999759 0.0219384 0.0 
1.19269 -0.101202 0.0 
1.01626 -0.116198 0.0 
1.04233 -0.0274563 0.0 
1.04405 -0.0321427 0.0 
1.09418 -0.0310141 0.0 
1.04259 0.0118077 0.0 
1.06112 -0.00888919 0.0 
1.17882 -0.00222201 0.0 
1.03315 0.014068 0.0 
1.23308 0.0856402 0.0 
1.03306 0.0239943 0.0 
0.999815 0.0176905 0.0 
1.14454 0.122235 0.0 
1.05933 -0.0153144 0.0 
1.00685 -0.0329327 0.0 
0.948194 0.0739254 0.0 
0.944602 0.0375148 0.0 
1.01393 0.0437771 0.0 
1.1159 -0.00914019 0.0 
0.929367 0.032906 0.0 
1.0232 0.00209754 0.0 
1.02798 0 0.0 
1.05704 0.000466678 0.0 
0.93432 0.054438 0.0 
1.13989 -0.158406 0.0 
0.93665 0.159749 0.0 
1.1104 -0.191601 0.0 
0.95329 -0.0192585 0.0 
1.09006 0.248215 0.0 
0.983148 0.0278071 0.0 
1.08538 0.100822 0.0 
0.809752 0.0983424 0.0 
1.17604 0.0962532 0.0 
0.800502 -0.0704367 0.0 
1.08417 0.182315 0.0 
1.00391 0.0220389 0.0 
1.05484 0.0157556 0.0 
1.04071 0.00911212 0.0 
1.05029 0.000732606 0.0 
1.04756 0.0015827 0.0 
0.253141 0.00272636 0.0 
1.03875 0.00294622 0.0 
0.210869 0.0251993 0.0 
1.14763 -0.151739 0.0 
1.0037 0.0358592 0.0 
1.04347 0.00972926 0.0 
1 0 0.0 
0.983143 0.026649 0.0 
1.19528 0.0840881 0.0 
1.08971 -0.168794 0.0 
0.999477 0.0160656 0.0 
0.991457 0.0394087 0.0 
1.05164 0.0109559 0.0 
1.05531 0.00679752 0.0 
0.941066 0.188283 0.0 
0.795608 0.128441 0.0 
1.00398 0.0190991 0.0 
1.20589 0.185811 0.0 
1.00165 0.241917 0.0 
0.999016 0.0126202 0.0 
0.986184 0.0294192 0.0 
1.05364 0.00287702 0.0 
0.938606 0.124184 0.0 
0.392086 -0.15094 0.0 
1.05266 0.00479083 0.0 
0.178511 0.0987779 0.0 
1.05309 0.000955061 0.0 
1.18696 -0.116599 0.0 
1.01432 0.0489391 0.0 
1.13592 -0.143885 0.0 
1.04905 0.00362858 0.0 
0.957196 -0.0056347 0.0 
0.417968 0.0142369 0.0 
1.05884 -0.0188527 0.0 
0.946848 -0.000860969 0.0 
0.999684 0.0157633 0.0 
1.05644 -0.0233708 0.0 
0.942263 0.0657211 0.0 
1.18779 -0.0316508 0.0 
0.50485 -0.151073 0.0 
0.972045 -0.127638 0.0 
0.941428 -0.00400507 0.0 
0.966513 0.271427 0.0 
0.25767 0.047286 0.0 
0.999446 0.315019 0.0 
1.16583 -0.0983481 0.0 
1.07539 -0.0361858 0.0 
0.963087 -0.047778 0.0 
0.363094 0.116878 0.0 
1.09721 0.0647187 0.0 
0.998619 0.0127068 0.0 
0.801507 -0.0293126 0.0 
0.356994 -0.140821 0.0 
0.915672 -0.0426095 0.0 
1.09077 -0.147788 0.0 
1.02585 0.0397587 0.0 
0.99871 0.0122737 0.0 
1.02717 -0.094574 0.0 
1.13897 -0.0178036 0.0 
1.16066 0.006055 0.0 
0.185403 0.0403263 0.0 
0.937078 -0.0565662 0.0 
1.03376 0.0333912 0.0 
1.06067 -0.00458761 0.0 
0.938498 -0.00834934 0.0 
0.280911 0.021777 0.0 
0.998723 0.0132231 0.0 
1.16208 0.0112731 0.0 
1.05623 -0.0229684 0.0 
0.965241 0.215081 0.0 
1.04736 0.00804874 0.0 
1.06119 0.00310791 0.0 
1.06082 0.00748662 0.0 
0.954854 0.0378024 0.0 
1.05759 -0.0208052 0.0 
0.998838 0.0144346 0.0 
0.952492 0.0075445 0.0 
1.16106 -0.0163448 0.0 
1.04715 0.0224691 0.0 
0.989316 0.00780647 0.0 
0.953704 0.0157366 0.0 
0.998874 0.0146287 0.0 
1.05239 0.00847943 0.0 
1.04192 0.000748976 0.0 
1.05806 -0.0182732 0.0 
0.990469 0.0094496 0.0 
1.01697 0.038529 0.0 
0.99883 0.0138301 0.0 
1.04942 -0.0230966 0.0 
1.05662 0.0204817 0.0 
0.133347 0.0213168 0.0 
0.128789 0.0684275 0.0 
1.05994 0.0164951 0.0 
0.906571 -0.0556181 0.0 
0.925791 -0.0389253 0.0 
0.896741 0.116518 0.0 
0.99931 0.0145989 0.0 
0.998777 0.014529 0.0 
0.962897 -0.0125977 0.0 
0.965133 -0.00143528 0.0 
1.03331 0.0202088 0.0 
0.965397 0.233978 0.0 
1.06746 0.14917 0.0 
1.02634 -0.0429293 0.0 
0.161352 0.0332909 0.0 
1.14808 0.0105389 0.0 
1.04982 0.140023 0.0 
0.998644 0.014029 0.0 
1.01423 0.0303502 0.0 
1.09677 -0.0109022 0.0 
0.98298 0.0213491 0.0 
0.93497 0.0466312 0.0 
1.03576 -0.0254129 0.0 
0.973571 0.0376348 0.0 
0.941837 0.108683 0.0 
0.934667 0.0590556 0.0 
1.11112 -0.165467 0.0 
0.963083 0.0075947 0.0 
0.825953 -0.0416533 0.0 
1.00087 0.0188884 0.0 
1.02675 0.0437824 0.0 
0.953997 -0.00957273 0.0 
0.961734 -0.000485573 0.0 
0.923152 0.034513 0.0 
1.10526 0.246379 0.0 
0.9725 0.00657184 0.0 
0.946915 0.290995 0.0 
0.945787 0.0330802 0.0 
0.97678 0.225373 0.0 
0.854175 0.285539 0.0 
0.995158 0.00799627 0.0 
1.00254 0 0.0 
0.998772 0.0126572 0.0 
0.977399 0.00207564 0.0 
0.906618 0.15136 0.0 
0.154471 0.00731664 0.0 
1.0099 0.0447127 0.0 
0.980899 0.00765129 0.0 
0.999361 0.0130592 0.0 
0.917009 -0.0709378 0.0 
0.917204 0.0333197 0.0 
1.21346 -0.0172166 0.0 
0.998643 0.0129418 0.0 
1.04506 0.0731228 0.0 
1.03065 -0.163264 0.0 
1.03644 -0.0204654 0.0 
0.936722 0.0637472 0.0 
0.995189 0.0167743 0.0 
0.944815 0.027882 0.0 
0.990966 0.0205805 0.0 
0.161753 0.055683 0.0 
1.03712 -0.167668 0.0 
1.03341 -0.00573459 0.0 
1.13882 0.0899002 0.0 
1.17536 -0.130086 0.0 
0.997685 0.0111953 0.0 
0.982154 0.0190828 0.0 
1.01205 0.199623 0.0 
1.11509 0.153361 0.0 
0.597495 0.0943002 0.0 
0.952359 0.188366 0.0 
0.98154 0.019444 0.0 
0.606099 -0.172051 0.0 
0.982495 0.0223634 0.0 
0.997234 0.0132794 0.0 
1.00021 0.0203149 0.0 
0.583999 -0.169261 0.0 
0.498461 -0.166799 0.0 
0.981631 0.030577 0.0 
0.348875 0.0574122 0.0 
1.19336 0.0794852 0.0 
1.00918 0.0441222 0.0 
0.980782 0.0328162 0.0 
0.999575 0.0201968 0.0 
0.978084 0.0117021 0.0 
0.930873 0.0687739 0.0 
0.976785 0.02611 0.0 
0.853888 0.285047 0.0 
0.889472 -0.165758 0.0 
0.496216 -0.173642 0.0 
0.96841 0.0139588 0.0 
0.974976 0.012599 0.0 
1.05587 0.202497 0.0 
0.678851 -0.170143 0.0 
0.940264 0.0213967 0.0 
1.03902 -0.0337662 0.0 
0.984838 0.24477 0.0 
0.999163 0.0142265 0.0 
0.923208 0.081818 0.0 
0.9724 0.0313999 0.0 
0.931075 0.142894 0.0 
0.971238 0.153285 0.0 
1.01086 0.253925 0.0 
1.05681 -0.155322 0.0 
0.938146 -0.051358 0.0 
1.0984 0.0627486 0.0 
0.479181 0.0931661 0.0 
0.927428 -0.0586882 0.0 
0.365201 -0.0802581 0.0 
0.900054 -0.0122559 0.0 
0.761816 0.134596 0.0 
0.916311 -0.0655066 0.0 
0.923267 -0.0552282 0.0 
0.623495 0.165092 0.0 
1.04827 0.00814748 0.0 
0.942017 0.172795 0.0 
0.880688 -0.00436893 0.0 
0.929318 -0.0527908 0.0 
1.03312 -0.00702446 0.0 
0.350215 0.0410856 0.0 
1.03328 -0.00881569 0.0 
0.867055 0.00788791 0.0 
0.904914 0.216413 0.0 
1.0378 0.00199769 0.0 
0.908048 -0.0871009 0.0 
0.93124 0.180904 0.0 
0.63972 -0.17494 0.0 
1.11236 0.0662287 0.0 
1.04391 0.166627 0.0 
0.834866 0.380862 0.0 
1.10304 0.161153 0.0 
1.06859 0.257754 0.0 
1.13359 -0.159023 0.0 
0.989478 -0.158584 0.0 
0.977892 0.0336469 0.0 
0.542169 0.0604719 0.0 
0.91954 -0.0517737 0.0 
1.03135 0.0636809 0.0 
0.500172 -0.0669952 0.0 
1.0461 0.262031 0.0 
1.04688 0.0386775 0.0 
0.879984 0.105311 0.0 
1.00501 0.0225557 0.0 
0.89356 0.0671224 0.0 
0.421521 -0.0463654 0.0 
0.8543 0.0766043 0.0 
0.949799 0.0371583 0.0 
0.947613 0.00442789 0.0 
1.16573 -0.0258739 0.0 
0.766561 0.335285 0.0 
0.848699 0.0892865 0.0 
1.02634 0.0722456 0.0 
1.08258 -0.0902364 0.0 
0.922173 -0.046033 0.0 
1.04408 0.2703 0.0 
0.964963 0.0173246 0.0 
0.99527 0.0408574 0.0 
0.910994 0.0770919 0.0 
0.925366 0.112451 0.0 
0.911313 0.035754 0.0 
1.00905 0.0285152 0.0 
0.920602 0.105825 0.0 
0.918914 0.220373 0.0 
0.999099 0.0132964 0.0 
1.09095 -0.0645156 0.0 
0.642387 -0.175921 0.0 
1.05879 0.248989 0.0 
0.967493 0.202147 0.0 
0.808389 0.151362 0.0 
0.828097 0.0385795 0.0 
0.887066 0.0302185 0.0 
1.04482 0.304063 0.0 
0.999457 0.0180235 0.0 
1.12512 0.134925 0.0 
1.03483 0.224737 0.0 
0.887763 -0.0476065 0.0 
0.92347 -0.00133532 0.0 
0.859615 0.158344 0.0 
0.911555 0.0210834 0.0 
0.885976 0.0153124 0.0 
0.933306 -0.0451501 0.0 
0.935557 0.206659 0.0 
0.995406 0.0310021 0.0 
0.999462 0.0155237 0.0 
0.359675 -0.0528298 0.0 
0.320141 -0.0340552 0.0 
0.913512 0.0281472 0.0 
0.532901 0.154011 0.0 
1.03314 -0.00790725 0.0 
0.92264 -0.0156934 0.0 
0.978085 -0.000397282 0.0 
0.903395 0.0765833 0.0 
0.843059 0.00722271 0.0 
1.08066 -0.0610878 0.0 
0.955303 0.00849453 0.0 
0.97567 0.00962705 0.0 
1.08677 0.265766 0.0 
0.56448 -0.166134 0.0 
0.93265 0.299823 0.0 
0.973134 0.00319499 0.0 
0.988398 0.0543989 0.0 
1.07021 -0.226457 0.0 
0.969137 0.00522141 0.0 
0.961946 0.0130386 0.0 
0.997642 0.0138446 0.0 
1.03416 -0.00826075 0.0 
0.814642 0.105803 0.0 
0.905114 0.0188363 0.0 
0.990991 0.00600717 0.0 
1.0306 -0.179819 0.0 
0.995075 0.0160431 0.0 
0.935924 0.0245135 0.0 
0.821134 0.167104 0.0 
0.950234 -0.00783217 0.0 
0.998096 0.0106616 0.0 
0.939102 0.00526864 0.0 
0.191915 0.128988 0.0 
0.944186 -0.00772998 0.0 
1.05901 -0.00565197 0.0 
0.955956 0.288053 0.0 
0.248563 0.0170679 0.0 
1.10409 0.252692 0.0 
0.988108 0.0153873 0.0 
1.02918 -0.150729 0.0 
0.969015 0.00240358 0.0 
0.959854 0.00965181 0.0 
0.960078 0.00508364 0.0 
0.548758 0.135289 0.0 
0.962091 0.00241953 0.0 
0.956175 -0.0128856 0.0 
0.659621 0.184242 0.0 
1.0315 -0.0120374 0.0 
1.02989 0.046217 0.0 
1.00202 0.264699 0.0 
0.980979 0.0213508 0.0 
0.975407 0.0294773 0.0 
0.964858 0.00448282 0.0 
0.894219 0.0133875 0.0 
0.95909 -0.0171607 0.0 
0.156525 0.00749733 0.0 
0.968863 0.000349188 0.0 
1.05252 0.0191238 0.0 
0.87748 0.167816 0.0 
0.99644 0.0126112 0.0 
1.05561 0.0270756 0.0 
1.05544 0.092677 0.0 
1.10131 -0.0643076 0.0 
1.09459 0.101033 0.0 
0.976641 -0.00235533 0.0 
0.878216 0.182733 0.0 
0.996544 0.0150626 0.0 
0.996907 0.0116743 0.0 
0.891261 -0.0405007 0.0 
0.978645 0.0262814 0.0 
1.16562 -0.223405 0.0 
0.796482 0.0110634 0.0 
0.942474 0.0418084 0.0 
1.01992 0.301597 0.0 
0.911929 0.352804 0.0 
0.840313 0.132099 0.0 
1.15695 0.0652564 0.0 
0.156136 0.134669 0.0 
1.02228 0.288387 0.0 
1.07058 0.263986 0.0 
1.03429 -0.00554576 0.0 
0.939462 0.0940232 0.0 
0.100046 0.0645823 0.0 
1.1781 0.140483 0.0 
0.977711 0.0323304 0.0 
0.910968 0.121793 0.0 
1.13118 0.216309 0.0 
0.85262 0.124273 0.0 
-0.011254 -0.0282894 0.0 
0.978807 0.0304829 0.0 
0.925783 0.0736242 0.0 
0.757646 0.139289 0.0 
0.979658 0.02725 0.0 
0.912902 0.149734 0.0 
0.995811 0.0130957 0.0 
0.904039 0.101354 0.0 
0.979152 0.02841 0.0 
0.854988 0.0558639 0.0 
0.832289 0.0229013 0.0 
0.905481 0.163805 0.0 
0.998708 0.0119393 0.0 
0.969045 -0.00410212 0.0 
0.980127 0.0256026 0.0 
0.998986 0.0182815 0.0 
0.962922 -0.00413116 0.0 
0.961869 -0.00778502 0.0 
0.966359 -0.00359363 0.0 
0.93923 -0.0405256 0.0 
0.926508 0.0582337 0.0 
0.927201 0.0879836 0.0 
1.03442 -0.000587863 0.0 
0.989524 0.0326093 0.0 
1.05412 0.0285659 0.0 
0.999097 0.0151703 0.0 
1.06996 -0.000509382 0.0 
1.0043 0.0794543 0.0 
0.950053 0.0137611 0.0 
0.976894 0.0275694 0.0 
1.05194 -0.157781 0.0 
1.10648 0.24024 0.0 
1.12725 0.228118 0.0 
0.934498 -0.0313942 0.0 
0.998993 0.0146883 0.0 
0.951526 0.011435 0.0 
0.996294 0.0141988 0.0 
0.979686 0.00593692 0.0 
1.04894 0.0135423 0.0 
1.0511 -0.168566 0.0 
0.259262 0.0315871 0.0 
0.678145 0.136048 0.0 
0.943616 -0.0416554 0.0 
0.959941 0.166634 0.0 