<VTKFile type="UnstructuredGrid" version="0.1" byte_order="LittleEndian">
  <UnstructuredGrid>
    <Piece NumberOfPoints="9712" NumberOfCells="19403">
      <Points>
        <DataArray type = "Float64" NumberOfComponents="3" format="ascii">
-5 -7 0.0 
15.5 -7 0.0 
15.5 7 0.0 
-5 7 0.0 
-1.6546 1.77742 0.0 
-2.13867 1.86504 0.0 
-1.83467 1.79143 0.0 
1.47969 -2.21179 0.0 
1.36003 -2.38618 0.0 
1.4346 -2.45048 0.0 
-2.04214 1.94165 0.0 
-0.20425 1.17338 0.0 
-2.07648 1.81911 0.0 
-2.00827 1.89081 0.0 
-2.05492 1.98872 0.0 
0.192693 0.536219 0.0 
0.154285 1.75648 0.0 
1.1379 -1.62057 0.0 
-2.11226 1.96977 0.0 
-1.74119 1.75327 0.0 
1.14499 -1.58184 0.0 
-1.94373 2.37229 0.0 
1.50619 -0.664239 0.0 
1.99658 -1.76705 0.0 
1.7229 -1.18344 0.0 
-1.97759 2.52091 0.0 
-0.768046 0.387136 0.0 
1.32657 -1.43969 0.0 
1.90142 0.24821 0.0 
-0.93264 1.51038 0.0 
1.09557 0.967223 0.0 
0.627111 0.757352 0.0 
-2.05707 2.31394 0.0 
1.34027 -2.45136 0.0 
-0.725097 0.397516 0.0 
-0.666094 2.30428 0.0 
-0.73829 -0.279965 0.0 
1.73336 -1.08822 0.0 
1.88466 -1.24421 0.0 
1.50539 -1.23752 0.0 
1.65978 -1.30759 0.0 
-0.0409718 0.542603 0.0 
1.6005 -1.1227 0.0 
1.78439 -0.941488 0.0 
1.86015 -1.54236 0.0 
1.49308 -1.40058 0.0 
2.34892 -1.47149 0.0 
2.13832 -1.3246 0.0 
1.73061 0.751302 0.0 
-0.580328 0.526903 0.0 
1.51013 -2.1595 0.0 
-1.65424 3.45779 0.0 
-1.51397 2.46352 0.0 
1.42773 -2.17867 0.0 
0.304353 0.497878 0.0 
2.24628 0.228293 0.0 
1.51258 -2.27933 0.0 
-1.60346 3.44299 0.0 
-1.71408 2.36227 0.0 
2.17421 0.530405 0.0 
2.42 0.316451 0.0 
-1.63642 3.31911 0.0 
2.53942 -0.995036 0.0 
0.750003 0.810439 0.0 
2.04736 0.40918 0.0 
1.19615 -1.50641 0.0 
2.13474 0.494063 0.0 
0.547924 0.306722 0.0 
-0.2059 0.361394 0.0 
2.2127 0.547693 0.0 
1.41442 -0.597105 0.0 
1.52233 -1.46252 0.0 
-1.84114 2.53924 0.0 
-5 -2.53894 0.0 
2.32127 0.371156 0.0 
-1.69186 3.33379 0.0 
-0.964779 0.566136 0.0 
-1.81311 2.48387 0.0 
-1.78557 3.38304 0.0 
1.48278 0.914136 0.0 
2.51531 -1.89689 0.0 
1.20982 -0.330514 0.0 
0.408434 0.319657 0.0 
0.95023 0.60993 0.0 
-0.752349 0.440796 0.0 
-0.998248 0.564019 0.0 
-1.73165 3.36299 0.0 
1.24353 -1.49063 0.0 
0.942095 0.817189 0.0 
-1.77816 2.47096 0.0 
2.48183 -1.95479 0.0 
1.33574 -1.77854 0.0 
0.823335 1.12085 0.0 
-0.36308 0.598468 0.0 
0.745466 0.783414 0.0 
-1.88344 2.8521 0.0 
-1.79794 3.52221 0.0 
3.0087 0.272815 0.0 
-1.81486 2.66014 0.0 
0.375911 -0.403668 0.0 
-0.68323 0.487288 0.0 
-0.34187 -0.274923 0.0 
-0.293875 -0.201368 0.0 
1.61018 -1.767 0.0 
-0.448275 -0.347267 0.0 
-1.08687 0.352015 0.0 
1.29257 -1.76345 0.0 
1.67658 -1.49551 0.0 
1.19193 0.533009 0.0 
1.21582 -1.91654 0.0 
-0.36438 -0.346225 0.0 
-0.92534 0.330346 0.0 
2.3836 0.287756 0.0 
1.68841 0.639887 0.0 
1.59001 -1.89458 0.0 
1.14818 -1.92143 0.0 
1.28996 -2.19426 0.0 
1.37603 -1.8763 0.0 
1.23834 -2.09141 0.0 
1.11702 -2.06287 0.0 
0.691829 0.463808 0.0 
1.46523 -2.03459 0.0 
-0.123547 0.424486 0.0 
-1.3311 2.12174 0.0 
1.08169 -1.90074 0.0 
1.87975 -2.15971 0.0 
1.10131 -1.78593 0.0 
1.13722 0.534683 0.0 
1.42465 -1.59031 0.0 
-1.45435 2.47344 0.0 
1.41998 -1.98207 0.0 
0.463917 1.8787 0.0 
-1.72896 2.89571 0.0 
1.12419 -1.84975 0.0 
1.59054 -1.20634 0.0 
0.46124 0.621002 0.0 
0.806438 -1.00204 0.0 
2.1804 0.349761 0.0 
2.21142 -1.6418 0.0 
1.10152 -0.274558 0.0 
2.23388 0.387302 0.0 
0.137769 0.567007 0.0 
1.88736 0.267391 0.0 
1.26821 -1.94267 0.0 
0.21033 -0.605707 0.0 
2.61094 -1.50046 0.0 
0.819837 0.743337 0.0 
-1.4303 2.07799 0.0 
1.82013 0.322126 0.0 
-1.47649 2.2099 0.0 
1.15745 -0.274223 0.0 
-1.81198 2.24994 0.0 
2.34337 -1.67775 0.0 
-1.13329 1.37877 0.0 
-0.828215 1.05292 0.0 
2.46752 -1.53452 0.0 
-1.69915 2.18529 0.0 
-0.404416 -0.286271 0.0 
-1.23501 1.31766 0.0 
2.11757 -1.50659 0.0 
-1.08535 1.28274 0.0 
2.58548 -1.70783 0.0 
0.24729 -0.572345 0.0 
-1.66963 2.25319 0.0 
1.58322 -1.62308 0.0 
-0.367923 -0.306026 0.0 
0.391521 1.44485 0.0 
1.88977 -2.46319 0.0 
1.5943 -1.53613 0.0 
-0.357143 -0.23651 0.0 
0.82621 0.80563 0.0 
-1.59261 2.31884 0.0 
-0.47244 -0.307516 0.0 
-0.40334 -0.326688 0.0 
-2.00063 2.11543 0.0 
1.55514 -1.95078 0.0 
-1.40431 2.26352 0.0 
-0.0265928 0.573714 0.0 
1.17093 1.10579 0.0 
-1.77907 2.22111 0.0 
0.682788 0.329642 0.0 
-0.54475 2.15572 0.0 
-0.288592 0.289433 0.0 
-1.43199 2.16349 0.0 
-1.45029 2.25134 0.0 
1.5535 -1.79992 0.0 
-1.06406 1.08381 0.0 
1.72954 1.44966 0.0 
0.582806 0.515814 0.0 
0.582876 -0.679913 0.0 
1.32351 -0.355916 0.0 
-0.47505 0.577092 0.0 
-0.371167 0.227715 0.0 
1.52235 -1.8529 0.0 
-0.429822 -0.244811 0.0 
-0.53237 -0.24648 0.0 
-0.393983 -0.210364 0.0 
0.652895 0.317361 0.0 
1.55812 -1.70765 0.0 
1.63021 0.325622 0.0 
0.442731 0.358729 0.0 
1.22925 -1.85192 0.0 
1.43517 -1.79082 0.0 
1.39317 -1.6984 0.0 
1.62965 0.295952 0.0 
0.905462 0.793465 0.0 
1.04036 -1.64811 0.0 
2.1131 -1.72466 0.0 
-0.743911 0.369492 0.0 
1.14427 -1.99314 0.0 
1.26033 -2.0209 0.0 
-1.70955 2.07308 0.0 
0.910023 -1.62976 0.0 
-0.313059 -0.0954838 0.0 
-1.77334 2.3988 0.0 
-0.311958 -0.24042 0.0 
2.53315 0.325608 0.0 
-0.273728 -0.226719 0.0 
-0.646401 0.379627 0.0 
1.52426 0.616074 0.0 
2.21703 -1.79499 0.0 
2.71108 0.312216 0.0 
0.759924 1.093 0.0 
-1.69271 2.12368 0.0 
0.255794 0.540969 0.0 
0.0534699 0.562158 0.0 
-1.5679 2.22408 0.0 
-1.66906 2.45165 0.0 
-1.51895 2.09449 0.0 
2.16948 0.408238 0.0 
-0.818806 0.680638 0.0 
-0.826868 0.642087 0.0 
0.519855 0.276992 0.0 
-0.716682 1.18602 0.0 
-0.649974 -0.148775 0.0 
0.457368 0.256619 0.0 
0.517407 0.248194 0.0 
0.327129 0.39802 0.0 
0.533249 -0.878832 0.0 
-0.870735 0.634904 0.0 
1.19219 1.07557 0.0 
2.35922 0.366028 0.0 
-1.66911 3.66723 0.0 
-0.857603 1.54934 0.0 
-0.379189 2.30131 0.0 
-0.941007 1.36523 0.0 
-1.58662 2.49682 0.0 
-0.545297 0.352587 0.0 
0.327944 -0.744683 0.0 
-0.312756 0.524741 0.0 
-0.107843 0.506233 0.0 
2.13378 -2.36584 0.0 
1.52689 0.686953 0.0 
-0.119983 0.327909 0.0 
1.02161 -1.53072 0.0 
1.51507 0.39695 0.0 
-0.674484 1.02605 0.0 
-0.564724 -0.148435 0.0 
0.409388 0.290913 0.0 
0.252349 0.30842 0.0 
-1.09282 1.45998 0.0 
1.45674 -1.54484 0.0 
-0.266777 0.782169 0.0 
0.91327 -0.874389 0.0 
1.01208 1.13309 0.0 
-0.897136 1.35063 0.0 
-0.846484 0.489353 0.0 
1.47563 0.663768 0.0 
-1.22282 2.05021 0.0 
0.348906 0.416714 0.0 
1.41913 0.964648 0.0 
0.933289 -0.839038 0.0 
-1.85066 1.40221 0.0 
0.142477 1.99435 0.0 
-0.717809 0.341194 0.0 
-2.21177 1.41584 0.0 
0.396571 0.350929 0.0 
1.25171 -1.60721 0.0 
0.736798 0.393502 0.0 
-0.661427 0.19031 0.0 
2.18751 -2.32769 0.0 
-1.00908 1.6747 0.0 
2.21416 -2.07269 0.0 
-0.779194 0.642011 0.0 
-1.02312 1.3939 0.0 
2.08809 -2.24876 0.0 
-5 -4.48794 0.0 
1.61792 -1.46215 0.0 
-0.974627 1.38947 0.0 
1.81166 -2.48446 0.0 
-1.03635 1.47474 0.0 
0.869004 -1.74424 0.0 
0.956579 -1.78598 0.0 
1.07495 0.540689 0.0 
-1.08005 1.37763 0.0 
0.914755 -0.803058 0.0 
0.611759 -0.305322 0.0 
1.70043 -1.41356 0.0 
0.75708 -0.631542 0.0 
1.21215 1.01979 0.0 
-0.586902 0.440014 0.0 
1.9251 -2.56336 0.0 
-1.58261 1.91091 0.0 
-0.746541 1.26087 0.0 
-1.49915 1.13657 0.0 
-1.46675 0.971536 0.0 
-1.05881 0.930935 0.0 
0.71826 0.415078 0.0 
-0.701697 0.526982 0.0 
-1.56194 2.05157 0.0 
1.15988 0.991244 0.0 
1.38676 0.949615 0.0 
-1.61697 2.02689 0.0 
1.13748 -0.357331 0.0 
-1.8456 2.04561 0.0 
0.253686 -0.756334 0.0 
-1.53603 1.86509 0.0 
-1.43465 0.924137 0.0 
-1.00273 1.27416 0.0 
-1.03063 1.5132 0.0 
-1.32483 1.94769 0.0 
-0.965552 1.61445 0.0 
-0.239859 -0.245939 0.0 
-5 3.01776 0.0 
-5 -0.248741 0.0 
0.517491 1.87079 0.0 
-1.18776 1.8875 0.0 
2.27458 0.36201 0.0 
1.9794 0.331487 0.0 
0.503086 0.510306 0.0 
1.26387 -0.370702 0.0 
1.24483 0.550197 0.0 
1.12871 0.979556 0.0 
-1.48659 1.83259 0.0 
1.0672 0.958366 0.0 
-1.16856 1.61214 0.0 
-0.218637 -0.230696 0.0 
-5 1.81431 0.0 
1.37014 1.04658 0.0 
0.0950623 0.557621 0.0 
-1.23613 1.67303 0.0 
0.953731 -0.709843 0.0 
2.07568 -1.85385 0.0 
2.10836 -1.82014 0.0 
-0.994952 1.33552 0.0 
-1.86986 1.52312 0.0 
0.515812 0.447542 0.0 
0.842446 0.992035 0.0 
-1.42353 1.8223 0.0 
2.091 0.354014 0.0 
-0.937663 0.401428 0.0 
-1.69305 1.41997 0.0 
-1.82465 1.55127 0.0 
2.15192 0.384657 0.0 
-1.17972 1.37998 0.0 
-0.718866 -0.0130647 0.0 
-0.927867 0.290435 0.0 
1.56509 0.300406 0.0 
-5 -3.04052 0.0 
9.98027 -7 0.0 
0.176009 0.694641 0.0 
0.597997 -0.559941 0.0 
-0.546583 0.4849 0.0 
0.602022 -0.657834 0.0 
2.17737 0.379672 0.0 
1.89809 0.287017 0.0 
-1.58883 1.35796 0.0 
-1.2284 1.37063 0.0 
-1.43937 1.35342 0.0 
-1.59664 1.47263 0.0 
0.577431 -0.368705 0.0 
1.5263 -1.51093 0.0 
0.479666 0.796509 0.0 
0.894995 1.01463 0.0 
2.22312 0.363016 0.0 
-0.320562 0.726481 0.0 
-1.30188 2.41386 0.0 
0.43802 0.434693 0.0 
-0.761697 0.762024 0.0 
1.45688 -1.49591 0.0 
-0.65072 0.676835 0.0 
1.6097 -1.41509 0.0 
2.25768 0.399237 0.0 
1.85518 0.299709 0.0 
2.14618 0.290757 0.0 
2.25222 0.371677 0.0 
-1.93063 2.91367 0.0 
1.52717 0.319618 0.0 
1.67964 -1.62237 0.0 
1.35962 -0.439169 0.0 
1.63007 -1.54335 0.0 
-5 -0.764504 0.0 
-1.61377 2.62271 0.0 
1.73865 -1.57725 0.0 
-0.908306 1.23669 0.0 
1.60766 0.330292 0.0 
1.82509 -1.63054 0.0 
1.90521 0.312457 0.0 
1.98719 -1.6488 0.0 
-0.528791 0.39225 0.0 
1.94978 -2.39003 0.0 
-0.472559 0.718465 0.0 
-1.28058 2.26572 0.0 
0.881581 -0.556282 0.0 
2.26369 0.42542 0.0 
0.917309 -1.69962 0.0 
0.853954 -1.60945 0.0 
1.30086 -0.404316 0.0 
1.99565 -2.46852 0.0 
1.49445 -1.47573 0.0 
1.68285 0.863315 0.0 
2.03074 -2.37549 0.0 
2.52279 -0.506167 0.0 
2.56049 -1.76899 0.0 
-1.52889 2.56597 0.0 
2.81136 -0.570221 0.0 
1.3688 -1.46095 0.0 
1.29524 -0.373946 0.0 
-0.350504 0.671928 0.0 
-0.590282 0.564035 0.0 
-0.054366 2.16706 0.0 
1.50819 1.22548 0.0 
-0.548222 0.453941 0.0 
2.19936 -2.5207 0.0 
12.2704 -7 0.0 
1.6811 -1.36761 0.0 
-0.449261 0.559535 0.0 
0.537017 -0.527614 0.0 
-0.00733391 0.553304 0.0 
0.494109 -0.356396 0.0 
-0.7939 0.0827441 0.0 
0.39888 0.467333 0.0 
-1.04288 1.34095 0.0 
0.605019 1.02824 0.0 
0.847559 0.374727 0.0 
1.00336 0.618307 0.0 
2.1955 0.399186 0.0 
0.656973 0.401158 0.0 
-0.998431 2.73564 0.0 
[...]
<PointData>
  <DataArray type = "Float64" Name="VitesseP1" NumberOfComponents="3" format="ascii">
1 0 0.0 
1.08962 0 0.0 
1.03128 0 0.0 
1 0 0.0 
0.99462 0.0162613 0.0 
0.996916 0.0114827 0.0 
0.995499 0.0140238 0.0 
1.04211 -0.00450734 0.0 
1.04393 -0.00554961 0.0 
1.04913 -0.00520005 0.0 
0.997763 0.012425 0.0 
0.985886 0.0735778 0.0 
0.996608 0.0118268 0.0 
0.996827 0.0126254 0.0 
0.998924 0.0124228 0.0 
0.991078 0.218734 0.0 
1.01926 0.055243 0.0 
1.04923 -0.0265784 0.0 
0.998844 0.0118344 0.0 
0.995028 0.0149734 0.0 
1.05457 -0.0275319 0.0 
0.998977 0.0137343 0.0 
1.15919 -0.0265328 0.0 
1.04629 0.0108136 0.0 
1.06317 -0.00289076 0.0 
0.998972 0.0132877 0.0 
0.944142 0.00908118 0.0 
1.06294 -0.0226471 0.0 
0.0644152 0.0040137 0.0 
0.98862 0.0321155 0.0 
1.14123 0.0693979 0.0 
1.10847 0.14336 0.0 
0.998942 0.0127251 0.0 
1.03383 -0.0186122 0.0 
0.940964 0.0126791 0.0 
1.00585 0.0312088 0.0 
0.936355 -0.0513246 0.0 
1.08421 -0.00269906 0.0 
1.05591 0.00762303 0.0 
1.05351 -0.0163393 0.0 
1.05632 -0.00592098 0.0 
0.925986 0.152139 0.0 
1.07467 -0.0119152 0.0 
1.12575 0.00068631 0.0 
1.06804 0.0058558 0.0 
1.06329 -0.0145234 0.0 
1.06299 0.0324098 0.0 
1.05678 0.022777 0.0 
1.19924 0.0270833 0.0 
0.939054 0.0360996 0.0 
1.04088 -0.00449958 0.0 
1.00259 0.0125533 0.0 
1.00004 0.0179554 0.0 
1.04029 -0.00608198 0.0 
1.03634 0.243803 0.0 
0.0335155 0.0123769 0.0 
1.04384 -0.00343759 0.0 
1.00282 0.0129495 0.0 
0.999238 0.0160368 0.0 
1.16655 -0.007547 0.0 
0.141573 0.00105957 0.0 
1.00258 0.0132186 0.0 
1.09508 0.0582387 0.0 
1.12134 0.122027 0.0 
0.560552 0.0034555 0.0 
1.06066 -0.0274659 0.0 
1.07421 -0.00444041 0.0 
0.552476 0.134387 0.0 
0.86203 0.0858196 0.0 
1.18733 -0.0125903 0.0 
1.20199 -0.0382824 0.0 
1.0668 -0.0121756 0.0 
0.999215 0.0144445 0.0 
1 0 0.0 
0.315404 -0.0120491 0.0 
1.00233 0.0128017 0.0 
0.967836 0.0110201 0.0 
0.999229 0.0148159 0.0 
1.00189 0.0119917 0.0 
1.17209 0.0370315 0.0 
1.03812 0.0210094 0.0 
0.750039 -0.0407607 0.0 
0.94614 0.263235 0.0 
1.17148 0.116659 0.0 
0.945774 0.0146438 0.0 
0.969664 0.00930981 0.0 
1.00222 0.0124199 0.0 
1.06202 -0.0256965 0.0 
1.14204 0.0989503 0.0 
0.999298 0.015173 0.0 
1.04506 0.0259624 0.0 
1.04211 -0.015168 0.0 
1.09577 0.0809396 0.0 
0.934882 0.0705869 0.0 
1.12365 0.126151 0.0 
1.0001 0.0131653 0.0 
1.00229 0.0112107 0.0 
0.0333704 -0.16881 0.0 
0.999444 0.0143538 0.0 
1.18997 -0.234627 0.0 
0.943635 0.0234451 0.0 
0.91809 -0.0883641 0.0 
0.914882 -0.0744403 0.0 
1.04643 -0.00479732 0.0 
0.923701 -0.0782995 0.0 
0.966915 -0.00782827 0.0 
1.04181 -0.0171009 0.0 
1.06853 -0.0037195 0.0 
1.19409 0.0855924 0.0 
1.03754 -0.0166518 0.0 
0.919373 -0.0886498 0.0 
0.954531 -0.00331199 0.0 
0.0848352 0.0112454 0.0 
1.20296 0.0345445 0.0 
1.04356 -0.00461381 0.0 
1.03599 -0.0184669 0.0 
1.03791 -0.00870981 0.0 
1.04133 -0.0121185 0.0 
1.03523 -0.0125122 0.0 
1.03233 -0.017467 0.0 
1.16156 0.184995 0.0 
1.03887 -0.00704357 0.0 
0.876484 0.126412 0.0 
0.9992 0.0215641 0.0 
1.03488 -0.0209795 0.0 
1.04118 0.0044364 0.0 
1.03704 -0.0233335 0.0 
1.19359 0.0929326 0.0 
1.06069 -0.0151233 0.0 
1.00031 0.0185916 0.0 
1.03886 -0.00912369 0.0 
1.02858 0.0488422 0.0 
1.00091 0.0142113 0.0 
1.03668 -0.0210154 0.0 
1.05817 -0.0113406 0.0 
1.08611 0.190026 0.0 
1.06776 -0.0736301 0.0 
0.158265 0.00563739 0.0 
1.05398 0.021433 0.0 
0.454762 -0.039351 0.0 
0.41656 -0.00752615 0.0 
0.976564 0.197155 0.0 
0.0684328 -0.00272199 0.0 
1.0376 -0.0145016 0.0 
1.02972 -0.160747 0.0 
1.05105 0.0474363 0.0 
1.13781 0.122021 0.0 
0.998867 0.0201448 0.0 
0.0777218 0.00952348 0.0 
0.999098 0.0191879 0.0 
0.407937 -0.0172116 0.0 
0.998878 0.0151211 0.0 
1.04573 0.0258937 0.0 
0.985016 0.0252399 0.0 
0.97318 0.0350681 0.0 
1.05612 0.0366651 0.0 
0.998703 0.0164053 0.0 
0.922112 -0.0795098 0.0 
0.984023 0.0216028 0.0 
1.06696 0.0193139 0.0 
0.981403 0.0260919 0.0 
1.03278 0.0321914 0.0 
1.03898 -0.171234 0.0 
0.999013 0.0166942 0.0 
1.05841 -0.00727643 0.0 
0.919494 -0.0858953 0.0 
1.03339 0.0710868 0.0 
1.04734 -0.00191706 0.0 
1.06719 -0.00763855 0.0 
0.915777 -0.0816651 0.0 
1.13126 0.113919 0.0 
0.999358 0.0174852 0.0 
0.927023 -0.0727154 0.0 
0.921534 -0.0826033 0.0 
0.998683 0.0131547 0.0 
1.04129 -0.005349 0.0 
0.999627 0.0200273 0.0 
0.938045 0.152126 0.0 
1.12962 0.050788 0.0 
0.998815 0.0154899 0.0 
0.628692 0.110458 0.0 
1.00639 0.0354368 0.0 
0.862668 0.0457436 0.0 
0.999042 0.0199268 0.0 
0.99942 0.0194347 0.0 
1.04471 -0.00673076 0.0 
0.973723 0.0245344 0.0 
1.0754 -0.0397998 0.0 
1.13981 0.200655 0.0 
1.10776 -0.129281 0.0 
0.868045 -0.0307418 0.0 
0.937662 0.0523925 0.0 
0.874395 0.0166778 0.0 
1.04367 -0.007372 0.0 
0.923407 -0.0730513 0.0 
0.93259 -0.062531 0.0 
0.918126 -0.0741799 0.0 
0.576755 0.110754 0.0 
1.04969 -0.00750853 0.0 
0.112988 0.0199819 0.0 
1.03484 0.26545 0.0 
1.039 -0.0175447 0.0 
1.04353 -0.0113213 0.0 
1.04824 -0.0145527 0.0 
0.0928809 0.0263045 0.0 
1.14121 0.105598 0.0 
1.04338 -0.0294485 0.0 
1.04725 0.0158968 0.0 
0.94102 0.00891155 0.0 
1.03354 -0.0173675 0.0 
1.03556 -0.0131912 0.0 
0.99879 0.0162952 0.0 
1.04054 -0.0346479 0.0 
0.897872 -0.0653789 0.0 
0.999205 0.0153549 0.0 
0.908986 -0.0856878 0.0 
0.213114 -0.0127978 0.0 
0.887102 -0.0838698 0.0 
0.932163 0.0164434 0.0 
1.20099 0.0475954 0.0 
1.04334 0.0191156 0.0 
0.29085 -0.0402648 0.0 
1.09515 0.0885167 0.0 
0.998632 0.016498 0.0 
1.01771 0.223716 0.0 
0.950507 0.177869 0.0 
0.99902 0.0179674 0.0 
0.99952 0.0163098 0.0 
0.998833 0.0188187 0.0 
0.560879 -0.00497103 0.0 
0.967354 0.02558 0.0 
0.96505 0.0230665 0.0 
0.411566 0.13575 0.0 
0.976145 0.0416032 0.0 
0.939669 -0.0443142 0.0 
0.299045 0.101225 0.0 
0.373454 0.184558 0.0 
1.06144 0.297361 0.0 
1.0682 -0.103169 0.0 
0.966832 0.0199724 0.0 
1.13715 0.0511084 0.0 
0.303487 -0.0100582 0.0 
1.00053 0.0118575 0.0 
0.990233 0.0344801 0.0 
1.01011 0.0359684 0.0 
0.983571 0.0317662 0.0 
0.999861 0.0170468 0.0 
0.918226 0.0216916 0.0 
1.05768 -0.131722 0.0 
0.918315 0.0761394 0.0 
0.907873 0.13246 0.0 
1.04733 0.0133868 0.0 
1.19194 0.0445097 0.0 
0.829081 0.117032 0.0 
1.05516 -0.0342012 0.0 
0.541807 0.0238735 0.0 
0.975479 0.0441934 0.0 
0.932012 -0.0502093 0.0 
0.69881 0.194553 0.0 
0.897459 0.339193 0.0 
0.987144 0.0269305 0.0 
1.06501 -0.0142287 0.0 
0.966612 0.0869237 0.0 
1.11208 -0.0770324 0.0 
1.11024 0.0638343 0.0 
0.982932 0.0334306 0.0 
0.95593 0.0124705 0.0 
1.19257 0.0499753 0.0 
0.999262 0.0236242 0.0 
1.07578 0.284475 0.0 
1.16524 0.0388288 0.0 
1.12248 -0.0780529 0.0 
0.994042 0.0105487 0.0 
1.01803 0.0474057 0.0 
0.937017 0.00779062 0.0 
0.997214 0.00881618 0.0 
1.01613 0.284736 0.0 
1.05445 -0.0222596 0.0 
0.995327 0.151527 0.0 
0.924657 -0.00634783 0.0 
1.03774 0.0314364 0.0 
0.992781 0.0294618 0.0 
1.03759 0.0161808 0.0 
0.962441 0.0262635 0.0 
0.984832 0.0289432 0.0 
1.03763 0.00753823 0.0 
1 0 0.0 
1.06786 -0.00705181 0.0 
0.984541 0.030609 0.0 
1.0454 -0.00128883 0.0 
0.987432 0.0287396 0.0 
1.03108 -0.0317793 0.0 
1.03326 -0.0279764 0.0 
1.19088 0.101836 0.0 
0.984633 0.0269469 0.0 
1.1281 -0.0826574 0.0 
0.911691 -0.146855 0.0 
1.06623 -0.00292479 0.0 
1.12641 -0.115149 0.0 
1.14572 0.0535832 0.0 
0.930858 0.0277267 0.0 
1.03692 0.00131028 0.0 
0.995982 0.0177309 0.0 
0.979445 0.0399791 0.0 
0.983931 0.0116034 0.0 
0.995447 0.0108399 0.0 
0.989906 0.0218251 0.0 
1.08609 0.16877 0.0 
0.948182 0.0250061 0.0 
0.998778 0.0181853 0.0 
1.14432 0.0609924 0.0 
1.16399 0.0424963 0.0 
0.99851 0.0174175 0.0 
0.928678 -0.0575569 0.0 
0.999128 0.014653 0.0 
1.04187 -0.128479 0.0 
0.995077 0.0183419 0.0 
1.00017 0.0114957 0.0 
0.980515 0.0290054 0.0 
0.9887 0.0289895 0.0 
0.996642 0.021991 0.0 
0.991817 0.0308656 0.0 
0.881432 -0.105667 0.0 
1 0 0.0 
1 0 0.0 
1.03042 0.0481767 0.0 
0.995319 0.024698 0.0 
0.247876 -0.00707686 0.0 
0.0567976 0.0161103 0.0 
1.11544 0.21786 0.0 
0.957103 -0.0455731 0.0 
1.19905 0.079288 0.0 
1.14286 0.0650543 0.0 
0.994503 0.0190672 0.0 
1.13968 0.073036 0.0 
0.99176 0.0252515 0.0 
0.947498 -0.163981 0.0 
1 0 0.0 
1.1559 0.0364728 0.0 
0.96076 0.190486 0.0 
0.99274 0.0237375 0.0 
1.14252 -0.0856441 0.0 
1.04355 0.013157 0.0 
1.04382 0.0147777 0.0 
0.982649 0.0296854 0.0 
0.995326 0.0117978 0.0 
1.12648 0.232997 0.0 
1.11699 0.0922966 0.0 
0.994254 0.0201408 0.0 
0.167726 0.00686432 0.0 
0.958205 0.00150904 0.0 
0.992052 0.0126265 0.0 
0.995255 0.0125207 0.0 
0.38062 -0.000377284 0.0 
0.985376 0.023835 0.0 
0.948107 -0.0291496 0.0 
0.953326 -0.00654268 0.0 
0.0984292 -0.00803336 0.0 
1 0 0.0 
1.06971 0 0.0 
1.00685 0.166859 0.0 
1.11867 -0.146483 0.0 
0.931588 0.0362382 0.0 
1.11163 -0.130583 0.0 
0.348665 -0.00114282 0.0 
0.078816 -8.82171e-05 0.0 
0.98957 0.0133746 0.0 
0.985518 0.0223325 0.0 
0.987342 0.0165551 0.0 
0.991611 0.0148151 0.0 
1.10668 -0.17374 0.0 
1.06693 -0.0112976 0.0 
1.07855 0.148065 0.0 
1.11995 0.0852688 0.0 
0.244649 -0.0018844 0.0 
0.956177 0.0797383 0.0 
1.00084 0.0207259 0.0 
1.10955 0.257823 0.0 
0.971983 0.0330491 0.0 
1.06616 -0.0151242 0.0 
0.958955 0.0383519 0.0 
1.06574 -0.00801271 0.0 
0.508704 -0.0118516 0.0 
0.0800309 0.0124783 0.0 
0.0642661 0.0188627 0.0 
0.30856 -0.00493141 0.0 
0.999859 0.0126067 0.0 
0.086918 0.00416918 0.0 
1.05909 -0.00286123 0.0 
1.15794 -0.0430561 0.0 
1.06717 -0.00580914 0.0 
1 0 0.0 
1.00001 0.0163161 0.0 
1.06514 -0.000155785 0.0 
0.978865 0.0326124 0.0 
0.0998422 0.0105174 0.0 
1.05881 0.00396352 0.0 
0.0762538 0.0030966 0.0 
1.05608 0.011303 0.0 
0.919909 0.0283884 0.0 
1.04243 -0.000103327 0.0 
0.956924 0.0588167 0.0 
1.00014 0.0217643 0.0 
1.19454 -0.110602 0.0 
0.696832 -0.0159362 0.0 
1.03518 -0.0317963 0.0 
1.04105 -0.0371853 0.0 
1.06656 -0.044903 0.0 
1.05515 0.00960994 0.0 
1.06668 -0.0134844 0.0 
1.18609 0.0207719 0.0 
1.0421 0.0133287 0.0 
1.24178 0.080692 0.0 
1.03473 0.0273933 0.0 
1.00022 0.0173916 0.0 
1.17687 0.103259 0.0 
1.06419 -0.0202216 0.0 
0.969944 -0.0456538 0.0 
0.947257 0.0746594 0.0 
0.943835 0.0377787 0.0 
1.01479 0.0432791 0.0 
1.13479 0.000790411 0.0 
0.928491 0.033073 0.0 
1.00666 -0.00572386 0.0 
1.06686 0 0.0 
1.06261 -0.00424579 0.0 
0.933371 0.0548716 0.0 
1.13835 -0.164028 0.0 
0.934814 0.161076 0.0 
1.10125 -0.195126 0.0 
0.952253 -0.0198519 0.0 
1.08624 0.251707 0.0 
0.98313 0.0279749 0.0 
1.08641 0.105962 0.0 
0.78292 0.10092 0.0 
1.1741 0.107921 0.0 
0.497221 -0.00639134 0.0 
1.07274 0.186879 0.0 
1.00462 0.0217177 0.0 
1.05582 0.0140646 0.0 
1.04266 0.00764764 0.0 
1.04697 -0.00185669 0.0 
1.04558 -0.000774955 0.0 
0.0680269 0.0184911 0.0 
1.04165 0.00114737 0.0 
-0.0255234 0.0124342 0.0 
1.07631 -0.0453545 0.0 
1.00431 0.0358767 0.0 
1.04419 0.00825492 0.0 
1 0 0.0 
0.98312 0.0267977 0.0 
1.19166 0.0977833 0.0 
0.798084 -0.0402657 0.0 
0.999857 0.0157449 0.0 
0.991707 0.0397294 0.0 
1.04932 0.00901577 0.0 
1.05413 0.00425173 0.0 
0.938934 0.189734 0.0 
0.775372 0.130422 0.0 
1.0047 0.0186117 0.0 
1.12716 0.121375 0.0 
0.998648 0.24407 0.0 
0.999347 0.0122909 0.0 
0.985865 0.0296436 0.0 
1.05057 0.000217187 0.0 
0.93716 0.125334 0.0 
0.179374 0.016884 0.0 
1.04958 0.00231868 0.0 
0.171546 0.098357 0.0 
1.04978 -0.00184966 0.0 
1.03005 -0.0187164 0.0 
1.01617 0.0487248 0.0 
1.13509 -0.0521845 0.0 
1.04644 0.00129426 0.0 
0.956837 -0.00593001 0.0 
0.330501 0.0156319 0.0 
1.0629 -0.023565 0.0 
0.946333 -0.00111609 0.0 
1.00008 0.0154217 0.0 
1.06043 -0.0284389 0.0 
0.941319 0.0663214 0.0 
1.19691 -0.0458621 0.0 
0.278811 -0.0134324 0.0 
0.632297 -0.0186188 0.0 
0.940825 -0.00431761 0.0 
0.9634 0.273011 0.0 
0.249315 0.0477571 0.0 
0.995371 0.316476 0.0 
0.951486 -0.0109132 0.0 
1.07826 -0.0436096 0.0 
0.716939 -0.000520679 0.0 
0.354957 0.116176 0.0 
1.10157 0.0717143 0.0 
0.998877 0.0124304 0.0 
0.568611 0.00199361 0.0 
0.162055 0.0425114 0.0 
0.913991 -0.0432207 0.0 
0.785512 -0.026506 0.0 
1.03108 0.0440608 0.0 
0.99888 0.0120468 0.0 
1.02552 -0.0983832 0.0 
1.11244 -0.0345541 0.0 
1.17218 0.0272804 0.0 
0.0795582 0.00597874 0.0 
0.935863 -0.0575752 0.0 
1.0364 0.0420811 0.0 
1.06674 -0.00915855 0.0 
0.937787 -0.00872898 0.0 
0.0676568 0.0136014 0.0 
0.998936 0.0129853 0.0 
1.17094 0.0310851 0.0 
1.0588 -0.0276813 0.0 
0.96276 0.21683 0.0 
1.05419 0.0127552 0.0 
1.06826 -0.00095367 0.0 
1.06832 0.00375468 0.0 
0.954187 0.0380989 0.0 
1.06076 -0.0254782 0.0 
0.999094 0.0141831 0.0 
0.951985 0.00741972 0.0 
1.13618 -0.0335806 0.0 
1.05428 0.0187307 0.0 
0.989296 0.00770146 0.0 
0.953149 0.0157273 0.0 
0.999148 0.0143664 0.0 
1.05776 0.00389393 0.0 
1.04141 -0.00567756 0.0 
1.06056 -0.0227492 0.0 
0.99047 0.00935312 0.0 
1.02123 0.0446156 0.0 
0.998921 0.0136641 0.0 
1.04452 -0.0272629 0.0 
1.06543 0.0177051 0.0 
0.0553838 0.0198355 0.0 
0.0555825 0.0166322 0.0 
1.06867 0.0137372 0.0 
0.9048 -0.0562824 0.0 
0.88681 -0.0480335 0.0 
0.874314 0.12032 0.0 
0.999668 0.0142658 0.0 
0.998998 0.0143023 0.0 
0.962652 -0.0129264 0.0 
0.96481 -0.00165854 0.0 
1.03448 0.0237853 0.0 
0.962692 0.235671 0.0 
1.0661 0.153326 0.0 
1.02971 -0.0447804 0.0 
0.0660436 0.00306435 0.0 
1.16059 0.026642 0.0 
1.09522 0.1402 0.0 
0.99882 0.0138278 0.0 
1.01502 0.0345573 0.0 
1.1128 -0.00648231 0.0 
0.982655 0.0214419 0.0 
0.934069 0.0469778 0.0 
1.03035 -0.0298333 0.0 
0.973083 0.0379713 0.0 
0.940554 0.109734 0.0 
0.933694 0.0595441 0.0 
0.836819 -0.038507 0.0 
0.96267 0.00748395 0.0 
0.786712 -0.048354 0.0 
1.00139 0.0185419 0.0 
1.03033 0.0447047 0.0 
0.953607 -0.00994347 0.0 
0.961376 -0.000702165 0.0 
0.922212 0.0346842 0.0 
1.09891 0.250009 0.0 
0.972171 0.00644758 0.0 
0.939873 0.292241 0.0 
0.945054 0.0332902 0.0 
0.974139 0.227246 0.0 
0.847547 0.28628 0.0 
0.99518 0.0078788 0.0 
1.00094 0 0.0 
0.998876 0.0124788 0.0 
0.977142 0.00188324 0.0 
0.889085 0.154236 0.0 
0.13348 0.0091009 0.0 
1.01093 0.0446297 0.0 
0.980642 0.0075305 0.0 
0.999443 0.0128841 0.0 
0.9152 -0.071741 0.0 
0.916216 0.0334637 0.0 
1.19438 -0.034283 0.0 
0.998805 0.0127373 0.0 
0.941163 0.0741951 0.0 
0.791017 -0.0763715 0.0 
1.03314 -0.024011 0.0 
0.93574 0.064298 0.0 
0.99534 0.0166629 0.0 
0.944103 0.0280216 0.0 
0.991034 0.0205916 0.0 
0.0804789 0.0173879 0.0 
0.781902 -0.0664793 0.0 
1.04353 -0.00371985 0.0 
1.15375 0.0807996 0.0 
1.15023 -0.033126 0.0 
0.997711 0.0110689 0.0 
0.982078 0.0191154 0.0 
1.00066 0.202852 0.0 
1.11291 0.159323 0.0 
0.577761 0.0954023 0.0 
0.950221 0.189952 0.0 
0.981444 0.0194836 0.0 
0.300617 -0.0227401 0.0 
0.98244 0.0224451 0.0 
0.997329 0.0131255 0.0 
1.00062 0.0200761 0.0 
0.244327 -0.0164411 0.0 
0.199753 -0.00676953 0.0 
0.981592 0.030797 0.0 
0.334226 0.057953 0.0 
1.19076 0.0936425 0.0 
1.01016 0.0440724 0.0 
0.980734 0.0330781 0.0 
0.999931 0.0199959 0.0 
0.977778 0.0116463 0.0 
0.929809 0.0693486 0.0 
0.976385 0.0262761 0.0 
0.851033 0.2856 0.0 
0.50938 -0.0290441 0.0 
0.223551 -0.00761278 0.0 
0.968001 0.0139389 0.0 
0.974636 0.0125589 0.0 
1.05315 0.20592 0.0 
0.312599 -0.0231688 0.0 
0.93955 0.0214424 0.0 
1.03353 -0.039207 0.0 
0.981895 0.246679 0.0 
0.999505 0.0138977 0.0 
0.922 0.0824795 0.0 
0.972172 0.0316559 0.0 
0.929398 0.14408 0.0 
0.95405 0.156852 0.0 
1.00764 0.256149 0.0 
0.729567 -0.0287162 0.0 
0.936893 -0.0522909 0.0 
1.11498 0.0573318 0.0 
0.465004 0.0937002 0.0 
0.92594 -0.059599 0.0 
0.102636 0.00898293 0.0 
0.898589 -0.0125698 0.0 
0.743308 0.136093 0.0 
0.91456 -0.0663223 0.0 
0.921698 -0.0560568 0.0 
0.610081 0.165133 0.0 
1.04618 0.00620464 0.0 
0.940051 0.174223 0.0 
0.879187 -0.00459297 0.0 
0.927852 -0.053652 0.0 
1.04038 -0.00625345 0.0 
0.336832 0.0415313 0.0 
1.03716 -0.00949259 0.0 
0.865581 0.00776608 0.0 
0.893653 0.217641 0.0 
1.04852 -0.0018235 0.0 
0.906032 -0.0880057 0.0 
0.916831 0.18334 0.0 
0.292625 -0.0242537 0.0 
1.12835 0.0602265 0.0 
1.0302 0.171133 0.0 
0.829062 0.380892 0.0 
1.10083 0.166493 0.0 
1.06179 0.260855 0.0 
0.965539 -0.0420979 0.0 
0.756896 -0.0926015 0.0 
0.977459 0.0339297 0.0 
0.515008 0.0613017 0.0 
0.91793 -0.0525216 0.0 
1.04678 0.063913 0.0 
0.171641 -0.0012347 0.0 
1.04259 0.264681 0.0 
1.0585 0.039095 0.0 
0.878391 0.105887 0.0 
1.00574 0.0222284 0.0 
0.892243 0.067509 0.0 
0.118357 0.0101075 0.0 
0.852725 0.0769151 0.0 
0.949086 0.0374324 0.0 
0.947068 0.00425103 0.0 
1.17299 -0.0396034 0.0 
0.762007 0.335681 0.0 
0.847058 0.089642 0.0 
1.02801 0.074374 0.0 
1.08129 -0.0958641 0.0 
0.9206 -0.0467385 0.0 
1.03771 0.272769 0.0 
0.964502 0.0173514 0.0 
0.995657 0.0411613 0.0 
0.909737 0.077642 0.0 
0.923946 0.113384 0.0 
0.910264 0.0359107 0.0 
1.00997 0.0281498 0.0 
0.919206 0.106671 0.0 
0.916457 0.221566 0.0 
0.999418 0.0129697 0.0 
1.09121 -0.0714722 0.0 
0.309811 -0.0279935 0.0 
1.05113 0.252153 0.0 
0.965173 0.203944 0.0 
0.806399 0.151734 0.0 
0.826383 0.0386141 0.0 
0.885837 0.0302808 0.0 
1.04047 0.30605 0.0 
0.999801 0.017779 0.0 
1.12343 0.141819 0.0 
1.03187 0.227536 0.0 
0.885801 -0.0480949 0.0 
0.922574 -0.00159535 0.0 
0.857633 0.159003 0.0 
0.910565 0.0210875 0.0 
0.884719 0.0152477 0.0 
0.931903 -0.0459518 0.0 
0.933224 0.20804 0.0 
0.995778 0.0310846 0.0 
0.999838 0.0151945 0.0 
0.0979998 0.0137028 0.0 
0.0866385 0.0152364 0.0 
0.912512 0.0282288 0.0 
0.523137 0.153452 0.0 
1.03843 -0.00801238 0.0 
0.921314 -0.0161045 0.0 
0.977852 -0.0006224 0.0 
0.902089 0.0770893 0.0 
0.841336 0.00708214 0.0 
1.08121 -0.0678743 0.0 
0.954817 0.00838719 0.0 
0.975353 0.00954293 0.0 
1.08265 0.268845 0.0 
0.223968 -0.00876773 0.0 
0.929409 0.300846 0.0 
0.972835 0.00302447 0.0 
0.9886 0.0550964 0.0 
1.06785 -0.229428 0.0 
0.968791 0.00508083 0.0 
0.961484 0.0130019 0.0 
0.997739 0.0136894 0.0 
1.0376 -0.00923416 0.0 
0.791139 0.108587 0.0 
0.904064 0.0188115 0.0 
0.990835 0.00583046 0.0 
1.0274 -0.182934 0.0 
0.99521 0.0159309 0.0 
0.935151 0.0245915 0.0 
0.805909 0.168351 0.0 
0.949777 -0.00818842 0.0 
0.998125 0.0105298 0.0 
0.938457 0.00509416 0.0 
0.187418 0.12826 0.0 
0.943595 -0.00809925 0.0 
1.06465 -0.0104645 0.0 
0.952731 0.2894 0.0 
0.0582834 0.00887863 0.0 
1.09977 0.256237 0.0 
0.98786 0.0153783 0.0 
0.935031 -0.126649 0.0 
0.968689 0.00222694 0.0 
0.959399 0.0095664 0.0 
0.959662 0.00493652 0.0 
0.541068 0.134579 0.0 
0.961714 0.00223994 0.0 
0.955803 -0.0132964 0.0 
0.648176 0.184158 0.0 
1.03434 -0.0130008 0.0 
1.03373 0.0470816 0.0 
0.994356 0.266603 0.0 
0.98088 0.0214219 0.0 
0.975238 0.0296954 0.0 
0.964485 0.00433245 0.0 
0.893042 0.0133068 0.0 
0.958768 -0.0176174 0.0 
0.112824 0.00362585 0.0 
0.968553 0.000147172 0.0 
1.05958 0.0156006 0.0 
0.875464 0.168616 0.0 
0.996479 0.0124964 0.0 
1.06549 0.0258467 0.0 
1.05687 0.0966933 0.0 
1.10153 -0.0716034 0.0 
1.09552 0.10669 0.0 
0.976408 -0.00260333 0.0 
0.876081 0.183572 0.0 
0.996669 0.014922 0.0 
0.996959 0.0115446 0.0 
0.889345 -0.0409622 0.0 
0.978516 0.0264395 0.0 
1.16285 -0.227251 0.0 
0.65401 0.0168935 0.0 
0.941665 0.0421199 0.0 
1.01599 0.303422 0.0 
0.906282 0.353585 0.0 
0.838457 0.132583 0.0 
1.15853 0.0778786 0.0 
0.153207 0.133811 0.0 
1.01629 0.290347 0.0 
1.06425 0.266787 0.0 
1.03925 -0.00640262 0.0 
0.93829 0.0949128 0.0 
0.0461969 0.010568 0.0 
1.17437 0.149114 0.0 
0.977583 0.032593 0.0 
0.909395 0.122675 0.0 
1.1246 0.221024 0.0 
0.850821 0.124786 0.0 
-0.0436194 -0.0176072 0.0 
0.978698 0.0307116 0.0 
0.924647 0.074222 0.0 
0.740171 0.14059 0.0 
0.979559 0.0274208 0.0 
0.911101 0.150774 0.0 
0.995895 0.012969 0.0 
0.902584 0.102053 0.0 
0.979043 0.0286013 0.0 
0.853473 0.0560561 0.0 
0.830572 0.022848 0.0 
0.903548 0.164822 0.0 
0.99884 0.0117361 0.0 
0.968767 -0.00435326 0.0 
0.980033 0.025744 0.0 
0.999276 0.0180829 0.0 
0.962595 -0.00438968 0.0 
0.961571 -0.00808384 0.0 
0.966061 -0.0038401 0.0 
0.93792 -0.0413211 0.0 
0.92547 0.0586753 0.0 
0.925984 0.0887286 0.0 
1.04146 -0.00185448 0.0 
0.989675 0.0328202 0.0 
1.06418 0.0269644 0.0 
0.999427 0.0148712 0.0 
1.07776 -0.00744815 0.0 
1.00474 0.0811197 0.0 
0.949479 0.0137194 0.0 
0.976743 0.0277541 0.0 
1.04906 -0.161317 0.0 
1.09913 0.244111 0.0 
1.1231 0.232551 0.0 
0.933014 -0.0319975 0.0 
0.999313 0.0143884 0.0 
0.950983 0.0113635 0.0 
0.99641 0.0140569 0.0 
0.979426 0.0057932 0.0 
1.05493 0.00907001 0.0 
1.04786 -0.172002 0.0 
0.0646658 0.0074032 0.0 
0.66165 0.136798 0.0 