<VTKFile type="UnstructuredGrid" version="0.1" byte_order="LittleEndian">
  <UnstructuredGrid>
    <Piece NumberOfPoints="9712" NumberOfCells="19403">
      <Points>
        <DataArray type = "Float64" NumberOfComponents="3" format="ascii">
-5 -7 0.0 
15.5 -7 0.0 
15.5 7 0.0 
-5 7 0.0 
-1.6546 1.77742 0.0 
-2.13867 1.86504 0.0 
-1.83467 1.79143 0.0 
1.47969 -2.21179 0.0 
1.36003 -2.38618 0.0 
1.4346 -2.45048 0.0 
-2.04214 1.94165 0.0 
-0.20425 1.17338 0.0 
-2.07648 1.81911 0.0 
-2.00827 1.89081 0.0 
-2.05492 1.98872 0.0 
0.192693 0.536219 0.0 
0.154285 1.75648 0.0 
1.1379 -1.62057 0.0 
-2.11226 1.96977 0.0 
-1.74119 1.75327 0.0 
1.14499 -1.58184 0.0 
-1.94373 2.37229 0.0 
1.50619 -0.664239 0.0 
1.99658 -1.76705 0.0 
1.7229 -1.18344 0.0 
-1.97759 2.52091 0.0 
-0.768046 0.387136 0.0 
1.32657 -1.43969 0.0 
1.90142 0.24821 0.0 
-0.93264 1.51038 0.0 
1.09557 0.967223 0.0 
0.627111 0.757352 0.0 
-2.05707 2.31394 0.0 
1.34027 -2.45136 0.0 
-0.725097 0.397516 0.0 
-0.666094 2.30428 0.0 
-0.73829 -0.279965 0.0 
1.73336 -1.08822 0.0 
1.88466 -1.24421 0.0 
1.50539 -1.23752 0.0 
1.65978 -1.30759 0.0 
-0.0409718 0.542603 0.0 
1.6005 -1.1227 0.0 
1.78439 -0.941488 0.0 
1.86015 -1.54236 0.0 
1.49308 -1.40058 0.0 
2.34892 -1.47149 0.0 
2.13832 -1.3246 0.0 
1.73061 0.751302 0.0 
-0.580328 0.526903 0.0 
1.51013 -2.1595 0.0 
-1.65424 3.45779 0.0 
-1.51397 2.46352 0.0 
1.42773 -2.17867 0.0 
0.304353 0.497878 0.0 
2.24628 0.228293 0.0 
1.51258 -2.27933 0.0 
-1.60346 3.44299 0.0 
-1.71408 2.36227 0.0 
2.17421 0.530405 0.0 
2.42 0.316451 0.0 
-1.63642 3.31911 0.0 
2.53942 -0.995036 0.0 
0.750003 0.810439 0.0 
2.04736 0.40918 0.0 
1.19615 -1.50641 0.0 
2.13474 0.494063 0.0 
0.547924 0.306722 0.0 
-0.2059 0.361394 0.0 
2.2127 0.547693 0.0 
1.41442 -0.597105 0.0 
1.52233 -1.46252 0.0 
-1.84114 2.53924 0.0 
-5 -2.53894 0.0 
2.32127 0.371156 0.0 
-1.69186 3.33379 0.0 
-0.964779 0.566136 0.0 
-1.81311 2.48387 0.0 
-1.78557 3.38304 0.0 
1.48278 0.914136 0.0 
2.51531 -1.89689 0.0 
1.20982 -0.330514 0.0 
0.408434 0.319657 0.0 
0.95023 0.60993 0.0 
-0.752349 0.440796 0.0 
-0.998248 0.564019 0.0 
-1.73165 3.36299 0.0 
1.24353 -1.49063 0.0 
0.942095 0.817189 0.0 
-1.77816 2.47096 0.0 
2.48183 -1.95479 0.0 
1.33574 -1.77854 0.0 
0.823335 1.12085 0.0 
-0.36308 0.598468 0.0 
0.745466 0.783414 0.0 
-1.88344 2.8521 0.0 
-1.79794 3.52221 0.0 
3.0087 0.272815 0.0 
-1.81486 2.66014 0.0 
0.375911 -0.403668 0.0 
-0.68323 0.487288 0.0 
-0.34187 -0.274923 0.0 
-0.293875 -0.201368 0.0 
1.61018 -1.767 0.0 
-0.448275 -0.347267 0.0 
-1.08687 0.352015 0.0 
1.29257 -1.76345 0.0 
1.67658 -1.49551 0.0 
1.19193 0.533009 0.0 
1.21582 -1.91654 0.0 
-0.36438 -0.346225 0.0 
-0.92534 0.330346 0.0 
2.3836 0.287756 0.0 
1.68841 0.639887 0.0 
1.59001 -1.89458 0.0 
1.14818 -1.92143 0.0 
1.28996 -2.19426 0.0 
1.37603 -1.8763 0.0 
1.23834 -2.09141 0.0 
1.11702 -2.06287 0.0 
0.691829 0.463808 0.0 
1.46523 -2.03459 0.0 
-0.123547 0.424486 0.0 
-1.3311 2.12174 0.0 
1.08169 -1.90074 0.0 
1.87975 -2.15971 0.0 
1.10131 -1.78593 0.0 
1.13722 0.534683 0.0 
1.42465 -1.59031 0.0 
-1.45435 2.47344 0.0 
1.41998 -1.98207 0.0 
0.463917 1.8787 0.0 
-1.72896 2.89571 0.0 
1.12419 -1.84975 0.0 
1.59054 -1.20634 0.0 
0.46124 0.621002 0.0 
0.806438 -1.00204 0.0 
2.1804 0.349761 0.0 
2.21142 -1.6418 0.0 
1.10152 -0.274558 0.0 
2.23388 0.387302 0.0 
0.137769 0.567007 0.0 
1.88736 0.267391 0.0 
1.26821 -1.94267 0.0 
0.21033 -0.605707 0.0 
2.61094 -1.50046 0.0 
0.819837 0.743337 0.0 
-1.4303 2.07799 0.0 
1.82013 0.322126 0.0 
-1.47649 2.2099 0.0 
1.15745 -0.274223 0.0 
-1.81198 2.24994 0.0 
2.34337 -1.67775 0.0 
-1.13329 1.37877 0.0 
-0.828215 1.05292 0.0 
2.46752 -1.53452 0.0 
-1.69915 2.18529 0.0 
-0.404416 -0.286271 0.0 
-1.23501 1.31766 0.0 
2.11757 -1.50659 0.0 
-1.08535 1.28274 0.0 
2.58548 -1.70783 0.0 
0.24729 -0.572345 0.0 
-1.66963 2.25319 0.0 
1.58322 -1.62308 0.0 
-0.367923 -0.306026 0.0 
0.391521 1.44485 0.0 
1.88977 -2.46319 0.0 
1.5943 -1.53613 0.0 
-0.357143 -0.23651 0.0 
0.82621 0.80563 0.0 
-1.59261 2.31884 0.0 
-0.47244 -0.307516 0.0 
-0.40334 -0.326688 0.0 
-2.00063 2.11543 0.0 
1.55514 -1.95078 0.0 
-1.40431 2.26352 0.0 
-0.0265928 0.573714 0.0 
1.17093 1.10579 0.0 
-1.77907 2.22111 0.0 
0.682788 0.329642 0.0 
-0.54475 2.15572 0.0 
-0.288592 0.289433 0.0 
-1.43199 2.16349 0.0 
-1.45029 2.25134 0.0 
1.5535 -1.79992 0.0 
-1.06406 1.08381 0.0 
1.72954 1.44966 0.0 
0.582806 0.515814 0.0 
0.582876 -0.679913 0.0 
1.32351 -0.355916 0.0 
-0.47505 0.577092 0.0 
-0.371167 0.227715 0.0 
1.52235 -1.8529 0.0 
-0.429822 -0.244811 0.0 
-0.53237 -0.24648 0.0 
-0.393983 -0.210364 0.0 
0.652895 0.317361 0.0 
1.55812 -1.70765 0.0 
1.63021 0.325622 0.0 
0.442731 0.358729 0.0 
1.22925 -1.85192 0.0 
1.43517 -1.79082 0.0 
1.39317 -1.6984 0.0 
1.62965 0.295952 0.0 
0.905462 0.793465 0.0 
1.04036 -1.64811 0.0 
2.1131 -1.72466 0.0 
-0.743911 0.369492 0.0 
1.14427 -1.99314 0.0 
1.26033 -2.0209 0.0 
-1.70955 2.07308 0.0 
0.910023 -1.62976 0.0 
-0.313059 -0.0954838 0.0 
-1.77334 2.3988 0.0 
-0.311958 -0.24042 0.0 
2.53315 0.325608 0.0 
-0.273728 -0.226719 0.0 
-0.646401 0.379627 0.0 
1.52426 0.616074 0.0 
2.21703 -1.79499 0.0 
2.71108 0.312216 0.0 
0.759924 1.093 0.0 
-1.69271 2.12368 0.0 
0.255794 0.540969 0.0 
0.0534699 0.562158 0.0 
-1.5679 2.22408 0.0 
-1.66906 2.45165 0.0 
-1.51895 2.09449 0.0 
2.16948 0.408238 0.0 
-0.818806 0.680638 0.0 
-0.826868 0.642087 0.0 
0.519855 0.276992 0.0 
-0.716682 1.18602 0.0 
-0.649974 -0.148775 0.0 
0.457368 0.256619 0.0 
0.517407 0.248194 0.0 
0.327129 0.39802 0.0 
0.533249 -0.878832 0.0 
-0.870735 0.634904 0.0 
1.19219 1.07557 0.0 
2.35922 0.366028 0.0 
-1.66911 3.66723 0.0 
-0.857603 1.54934 0.0 
-0.379189 2.30131 0.0 
-0.941007 1.36523 0.0 
-1.58662 2.49682 0.0 
-0.545297 0.352587 0.0 
0.327944 -0.744683 0.0 
-0.312756 0.524741 0.0 
-0.107843 0.506233 0.0 
2.13378 -2.36584 0.0 
1.52689 0.686953 0.0 
-0.119983 0.327909 0.0 
1.02161 -1.53072 0.0 
1.51507 0.39695 0.0 
-0.674484 1.02605 0.0 
-0.564724 -0.148435 0.0 
0.409388 0.290913 0.0 
0.252349 0.30842 0.0 
-1.09282 1.45998 0.0 
1.45674 -1.54484 0.0 
-0.266777 0.782169 0.0 
0.91327 -0.874389 0.0 
1.01208 1.13309 0.0 
-0.897136 1.35063 0.0 
-0.846484 0.489353 0.0 
1.47563 0.663768 0.0 
-1.22282 2.05021 0.0 
0.348906 0.416714 0.0 
1.41913 0.964648 0.0 
0.933289 -0.839038 0.0 
-1.85066 1.40221 0.0 
0.142477 1.99435 0.0 
-0.717809 0.341194 0.0 
-2.21177 1.41584 0.0 
0.396571 0.350929 0.0 
1.25171 -1.60721 0.0 
0.736798 0.393502 0.0 
-0.661427 0.19031 0.0 
2.18751 -2.32769 0.0 
-1.00908 1.6747 0.0 
2.21416 -2.07269 0.0 
-0.779194 0.642011 0.0 
-1.02312 1.3939 0.0 
2.08809 -2.24876 0.0 
-5 -4.48794 0.0 
1.61792 -1.46215 0.0 
-0.974627 1.38947 0.0 
1.81166 -2.48446 0.0 
-1.03635 1.47474 0.0 
0.869004 -1.74424 0.0 
0.956579 -1.78598 0.0 
1.07495 0.540689 0.0 
-1.08005 1.37763 0.0 
0.914755 -0.803058 0.0 
0.611759 -0.305322 0.0 
1.70043 -1.41356 0.0 
0.75708 -0.631542 0.0 
1.21215 1.01979 0.0 
-0.586902 0.440014 0.0 
1.9251 -2.56336 0.0 
-1.58261 1.91091 0.0 
-0.746541 1.26087 0.0 
-1.49915 1.13657 0.0 
-1.46675 0.971536 0.0 
-1.05881 0.930935 0.0 
0.71826 0.415078 0.0 
-0.701697 0.526982 0.0 
-1.56194 2.05157 0.0 
1.15988 0.991244 0.0 
1.38676 0.949615 0.0 
-1.61697 2.02689 0.0 
1.13748 -0.357331 0.0 
-1.8456 2.04561 0.0 
0.253686 -0.756334 0.0 
-1.53603 1.86509 0.0 
-1.43465 0.924137 0.0 
-1.00273 1.27416 0.0 
-1.03063 1.5132 0.0 
-1.32483 1.94769 0.0 
-0.965552 1.61445 0.0 
-0.239859 -0.245939 0.0 
-5 3.01776 0.0 
-5 -0.248741 0.0 
0.517491 1.87079 0.0 
-1.18776 1.8875 0.0 
2.27458 0.36201 0.0 
1.9794 0.331487 0.0 
0.503086 0.510306 0.0 
1.26387 -0.370702 0.0 
1.24483 0.550197 0.0 
1.12871 0.979556 0.0 
-1.48659 1.83259 0.0 
1.0672 0.958366 0.0 
-1.16856 1.61214 0.0 
-0.218637 -0.230696 0.0 
-5 1.81431 0.0 
1.37014 1.04658 0.0 
0.0950623 0.557621 0.0 
-1.23613 1.67303 0.0 
0.953731 -0.709843 0.0 
2.07568 -1.85385 0.0 
2.10836 -1.82014 0.0 
-0.994952 1.33552 0.0 
-1.86986 1.52312 0.0 
0.515812 0.447542 0.0 
0.842446 0.992035 0.0 
-1.42353 1.8223 0.0 
2.091 0.354014 0.0 
-0.937663 0.401428 0.0 
-1.69305 1.41997 0.0 
-1.82465 1.55127 0.0 
2.15192 0.384657 0.0 
-1.17972 1.37998 0.0 
-0.718866 -0.0130647 0.0 
-0.927867 0.290435 0.0 
1.56509 0.300406 0.0 
-5 -3.04052 0.0 
9.98027 -7 0.0 
0.176009 0.694641 0.0 
0.597997 -0.559941 0.0 
-0.546583 0.4849 0.0 
0.602022 -0.657834 0.0 
2.17737 0.379672 0.0 
1.89809 0.287017 0.0 
-1.58883 1.35796 0.0 
-1.2284 1.37063 0.0 
-1.43937 1.35342 0.0 
-1.59664 1.47263 0.0 
0.577431 -0.368705 0.0 
1.5263 -1.51093 0.0 
0.479666 0.796509 0.0 
0.894995 1.01463 0.0 
2.22312 0.363016 0.0 
-0.320562 0.726481 0.0 
-1.30188 2.41386 0.0 
0.43802 0.434693 0.0 
-0.761697 0.762024 0.0 
1.45688 -1.49591 0.0 
-0.65072 0.676835 0.0 
1.6097 -1.41509 0.0 
2.25768 0.399237 0.0 
1.85518 0.299709 0.0 
2.14618 0.290757 0.0 
2.25222 0.371677 0.0 
-1.93063 2.91367 0.0 
1.52717 0.319618 0.0 
1.67964 -1.62237 0.0 
1.35962 -0.439169 0.0 
1.63007 -1.54335 0.0 
-5 -0.764504 0.0 
-1.61377 2.62271 0.0 
1.73865 -1.57725 0.0 
-0.908306 1.23669 0.0 
1.60766 0.330292 0.0 
1.82509 -1.63054 0.0 
1.90521 0.312457 0.0 
1.98719 -1.6488 0.0 
-0.528791 0.39225 0.0 
1.94978 -2.39003 0.0 
-0.472559 0.718465 0.0 
-1.28058 2.26572 0.0 
0.881581 -0.556282 0.0 
2.26369 0.42542 0.0 
0.917309 -1.69962 0.0 
0.853954 -1.60945 0.0 
1.30086 -0.404316 0.0 
1.99565 -2.46852 0.0 
1.49445 -1.47573 0.0 
1.68285 0.863315 0.0 
2.03074 -2.37549 0.0 
2.52279 -0.506167 0.0 
2.56049 -1.76899 0.0 
-1.52889 2.56597 0.0 
2.81136 -0.570221 0.0 
1.3688 -1.46095 0.0 
1.29524 -0.373946 0.0 
-0.350504 0.671928 0.0 
-0.590282 0.564035 0.0 
-0.054366 2.16706 0.0 
1.50819 1.22548 0.0 
-0.548222 0.453941 0.0 
2.19936 -2.5207 0.0 
12.2704 -7 0.0 
1.6811 -1.36761 0.0 
-0.449261 0.559535 0.0 
0.537017 -0.527614 0.0 
-0.00733391 0.553304 0.0 
0.494109 -0.356396 0.0 
-0.7939 0.0827441 0.0 
0.39888 0.467333 0.0 
-1.04288 1.34095 0.0 
0.605019 1.02824 0.0 
0.847559 0.374727 0.0 
1.00336 0.618307 0.0 
2.1955 0.399186 0.0 
0.656973 0.401158 0.0 
-0.998431 2.73564 0.0 
[...]
<PointData>
  <DataArray type = "Float64" Name="VitesseP1" NumberOfComponents="3" format="ascii">
1 0 0.0 
1.09389 0 0.0 
1.03602 0 0.0 
1 0 0.0 
0.994623 0.0156904 0.0 
0.996917 0.0110346 0.0 
0.9955 0.0135042 0.0 
1.04254 -0.00388886 0.0 
1.04457 -0.00491573 0.0 
1.05003 -0.00450848 0.0 
0.997759 0.0119594 0.0 
0.986604 0.0726761 0.0 
0.99661 0.0113648 0.0 
0.996823 0.0121502 0.0 
0.998913 0.0119617 0.0 
0.991982 0.218406 0.0 
1.02007 0.0534758 0.0 
1.04972 -0.0263069 0.0 
0.998838 0.0113848 0.0 
0.995035 0.0144283 0.0 
1.05508 -0.0272764 0.0 
0.998859 0.0132799 0.0 
1.16028 -0.0266707 0.0 
1.04699 0.0118468 0.0 
1.0641 -0.00242255 0.0 
0.998825 0.0128613 0.0 
0.944472 0.0086585 0.0 
1.06352 -0.0223679 0.0 
0.0642692 -0.000321648 0.0 
0.988813 0.0312893 0.0 
1.1434 0.0692166 0.0 
1.10989 0.143022 0.0 
0.99885 0.0122907 0.0 
1.0344 -0.018063 0.0 
0.94131 0.0122518 0.0 
1.00543 0.0301962 0.0 
0.936785 -0.0514937 0.0 
1.08525 -0.00228213 0.0 
1.05685 0.00833185 0.0 
1.0543 -0.0160386 0.0 
1.05712 -0.00546342 0.0 
0.926705 0.151744 0.0 
1.07558 -0.0116012 0.0 
1.12702 0.00102359 0.0 
1.06891 0.00667152 0.0 
1.06395 -0.0141632 0.0 
1.06398 0.0342015 0.0 
1.0578 0.0240015 0.0 
1.20189 0.032226 0.0 
0.939466 0.0356206 0.0 
1.04125 -0.00387608 0.0 
1.00249 0.0121887 0.0 
0.999814 0.0174162 0.0 
1.04069 -0.00546939 0.0 
1.03732 0.24353 0.0 
0.0397067 0.00578966 0.0 
1.04432 -0.0028455 0.0 
1.00271 0.0125852 0.0 
0.999089 0.0155271 0.0 
1.1554 0.00689718 0.0 
0.103021 0.00643085 0.0 
1.00238 0.0128608 0.0 
1.09735 0.0605129 0.0 
1.12294 0.121703 0.0 
0.515639 0.00694028 0.0 
1.06119 -0.02722 0.0 
1.04913 0.0087852 0.0 
0.554149 0.134573 0.0 
0.862584 0.0854774 0.0 
1.18239 0.00191142 0.0 
1.20312 -0.0385069 0.0 
1.06748 -0.0117597 0.0 
0.99904 0.0139946 0.0 
1 0 0.0 
0.266908 0.00110893 0.0 
1.00215 0.0124436 0.0 
0.968087 0.0105455 0.0 
0.999062 0.0143499 0.0 
1.00177 0.0116344 0.0 
1.17533 0.0380374 0.0 
1.03804 0.0233553 0.0 
0.74973 -0.0407963 0.0 
0.947465 0.263229 0.0 
1.17317 0.116618 0.0 
0.946109 0.0142007 0.0 
0.969902 0.00884039 0.0 
1.00205 0.0120609 0.0 
1.06256 -0.0254343 0.0 
1.14385 0.0987536 0.0 
0.999127 0.0146971 0.0 
1.04459 0.0278813 0.0 
1.0426 -0.0146876 0.0 
1.09753 0.0802633 0.0 
0.93541 0.0700884 0.0 
1.12522 0.125856 0.0 
0.999873 0.0127847 0.0 
1.00216 0.0108642 0.0 
-0.0143897 -0.149462 0.0 
0.999231 0.0139251 0.0 
1.19078 -0.23474 0.0 
0.944 0.022982 0.0 
0.918617 -0.0885282 0.0 
0.915403 -0.0746244 0.0 
1.04707 -0.00415631 0.0 
0.924238 -0.0784442 0.0 
0.967142 -0.00821399 0.0 
1.04228 -0.0166529 0.0 
1.06931 -0.00314891 0.0 
1.19563 0.0853089 0.0 
1.03786 -0.0161657 0.0 
0.919932 -0.088795 0.0 
0.954811 -0.00370744 0.0 
0.0634054 0.0154423 0.0 
1.20385 0.0391175 0.0 
1.044 -0.00395039 0.0 
1.03628 -0.0180133 0.0 
1.0383 -0.0081083 0.0 
1.04174 -0.0115683 0.0 
1.03555 -0.0119573 0.0 
1.03258 -0.0169875 0.0 
1.16293 0.185078 0.0 
1.03922 -0.00642369 0.0 
0.877102 0.126067 0.0 
0.999087 0.0208968 0.0 
1.03515 -0.0205746 0.0 
1.04133 0.00511172 0.0 
1.03737 -0.0229727 0.0 
1.19531 0.0926673 0.0 
1.06135 -0.0147067 0.0 
1.00006 0.0180395 0.0 
1.03921 -0.00852585 0.0 
1.03009 0.0468826 0.0 
1.00073 0.0138184 0.0 
1.03699 -0.0206088 0.0 
1.05901 -0.0109888 0.0 
1.08726 0.189725 0.0 
1.06838 -0.0736168 0.0 
0.122319 0.012898 0.0 
1.05481 0.0228732 0.0 
0.455182 -0.039283 0.0 
0.356335 0.00345341 0.0 
0.977434 0.196789 0.0 
0.0691366 -0.00828543 0.0 
1.03793 -0.0139798 0.0 
1.03041 -0.160825 0.0 
1.05176 0.0498296 0.0 
1.13943 0.121815 0.0 
0.998792 0.0195108 0.0 
0.0769711 0.00339837 0.0 
0.998959 0.0185861 0.0 
0.408558 -0.0172586 0.0 
0.998772 0.0146202 0.0 
1.04653 0.0276218 0.0 
0.985208 0.0245305 0.0 
0.973461 0.034366 0.0 
1.05698 0.0387181 0.0 
0.998603 0.0158671 0.0 
0.922627 -0.0796719 0.0 
0.984209 0.0209462 0.0 
1.0679 0.0205689 0.0 
0.981639 0.0253923 0.0 
1.03363 0.0344474 0.0 
1.0397 -0.171318 0.0 
0.998888 0.0161566 0.0 
1.05916 -0.00672706 0.0 
0.920032 -0.0860511 0.0 
1.03472 0.0697968 0.0 
1.04765 -0.00181696 0.0 
1.06793 -0.00712403 0.0 
0.916281 -0.0818403 0.0 
1.13294 0.11365 0.0 
0.999201 0.0169365 0.0 
0.927528 -0.0728732 0.0 
0.922073 -0.0827533 0.0 
0.998633 0.0126866 0.0 
1.04167 -0.00470136 0.0 
0.999454 0.0194106 0.0 
0.938785 0.151711 0.0 
1.13196 0.0504564 0.0 
0.998714 0.0149772 0.0 
0.630276 0.110688 0.0 
1.00611 0.034279 0.0 
0.86317 0.0454048 0.0 
0.998918 0.0193027 0.0 
0.99926 0.0188311 0.0 
1.04528 -0.0061148 0.0 
0.973989 0.0238906 0.0 
1.07435 -0.0420147 0.0 
1.14097 0.200522 0.0 
1.10848 -0.129323 0.0 
0.867754 -0.031144 0.0 
0.938129 0.0518949 0.0 
0.874865 0.0163416 0.0 
1.04416 -0.00675438 0.0 
0.923892 -0.0732267 0.0 
0.933039 -0.062711 0.0 
0.918611 -0.0743656 0.0 
0.578254 0.110909 0.0 
1.05037 -0.00693381 0.0 
0.109831 0.0166332 0.0 
1.03608 0.265376 0.0 
1.03936 -0.0170793 0.0 
1.04406 -0.010779 0.0 
1.04883 -0.0140892 0.0 
0.0902416 0.0246703 0.0 
1.14296 0.105394 0.0 
1.04379 -0.0292091 0.0 
1.04803 0.017125 0.0 
0.94136 0.00849478 0.0 
1.03382 -0.0168975 0.0 
1.03587 -0.0126486 0.0 
0.998738 0.0157504 0.0 
1.0409 -0.0344861 0.0 
0.898375 -0.065606 0.0 
0.999055 0.0148657 0.0 
0.909505 -0.0858609 0.0 
0.167016 -0.00999485 0.0 
0.887622 -0.0840463 0.0 
0.932539 0.0160237 0.0 
1.20161 0.0499104 0.0 
1.04388 0.0205049 0.0 
0.243517 -0.032657 0.0 
1.09683 0.0878367 0.0 
0.998555 0.0159519 0.0 
1.01867 0.223401 0.0 
0.951306 0.177486 0.0 
0.99889 0.0173965 0.0 
0.999334 0.0158058 0.0 
0.998757 0.0182168 0.0 
0.503601 0.00424426 0.0 
0.967653 0.0250412 0.0 
0.96535 0.0225451 0.0 
0.412594 0.13578 0.0 
0.976546 0.0408189 0.0 
0.940053 -0.044542 0.0 
0.300043 0.101354 0.0 
0.374143 0.184504 0.0 
1.06253 0.297188 0.0 
1.06878 -0.10317 0.0 
0.967114 0.019459 0.0 
1.13956 0.0508587 0.0 
0.255885 0.00137266 0.0 
1.00073 0.0114613 0.0 
0.990427 0.0336088 0.0 
1.00961 0.0346692 0.0 
0.983828 0.0309885 0.0 
0.999642 0.0165333 0.0 
0.91864 0.0212879 0.0 
1.05834 -0.131755 0.0 
0.918859 0.0756886 0.0 
0.908532 0.132071 0.0 
1.04722 0.0138806 0.0 
1.19336 0.0468575 0.0 
0.829659 0.116744 0.0 
1.05562 -0.0340261 0.0 
0.542524 0.0225588 0.0 
0.975785 0.0434647 0.0 
0.932427 -0.0504295 0.0 
0.700208 0.194648 0.0 
0.898426 0.339116 0.0 
0.987317 0.0261847 0.0 
1.06568 -0.0138151 0.0 
0.96723 0.0863186 0.0 
1.11277 -0.0770578 0.0 
1.11228 0.0633033 0.0 
0.983209 0.0326409 0.0 
0.95623 0.0120134 0.0 
1.19373 0.0517765 0.0 
0.999188 0.0229027 0.0 
1.07685 0.284284 0.0 
1.16828 0.0392784 0.0 
1.12321 -0.0780906 0.0 
0.994093 0.0100605 0.0 
1.01847 0.04504 0.0 
0.937367 0.00738392 0.0 
0.997233 0.00839326 0.0 
1.01731 0.284638 0.0 
1.05501 -0.0219361 0.0 
0.997172 0.151919 0.0 
0.925026 -0.0067024 0.0 
1.0371 0.0326612 0.0 
0.992862 0.0286347 0.0 
1.03736 0.0172312 0.0 
0.962763 0.0257378 0.0 
0.985049 0.0281877 0.0 
1.03731 0.00812864 0.0 
1 0 0.0 
1.0686 -0.00655677 0.0 
0.984776 0.0298361 0.0 
1.04572 -0.00112485 0.0 
0.987613 0.0279671 0.0 
1.0313 -0.0315739 0.0 
1.03352 -0.0276988 0.0 
1.19271 0.101664 0.0 
0.984841 0.0262179 0.0 
1.12883 -0.0827029 0.0 
0.912316 -0.146849 0.0 
1.067 -0.00237385 0.0 
1.12717 -0.115195 0.0 
1.14815 0.0534755 0.0 
0.93126 0.0272853 0.0 
1.03669 0.00137252 0.0 
0.995964 0.0171398 0.0 
0.979803 0.0391704 0.0 
0.984079 0.0110747 0.0 
0.995503 0.0103276 0.0 
0.990068 0.021219 0.0 
1.08768 0.169018 0.0 
0.94854 0.0245268 0.0 
0.99873 0.0175939 0.0 
1.14661 0.0608644 0.0 
1.16682 0.0429354 0.0 
0.998475 0.0168424 0.0 
0.92883 -0.0576206 0.0 
0.999096 0.014143 0.0 
1.04249 -0.128509 0.0 
0.995062 0.0177336 0.0 
1.00022 0.0109789 0.0 
0.980778 0.0282805 0.0 
0.988866 0.0282053 0.0 
0.996607 0.0213061 0.0 
0.991942 0.0300284 0.0 
0.881967 -0.105844 0.0 
1 0 0.0 
1 0 0.0 
1.03205 0.046262 0.0 
0.995286 0.0239488 0.0 
0.202343 0.00666046 0.0 
0.0593842 0.00911392 0.0 
1.11654 0.217663 0.0 
0.957179 -0.045927 0.0 
1.20025 0.0791628 0.0 
1.14509 0.0649009 0.0 
0.994493 0.0184407 0.0 
1.14179 0.0728292 0.0 
0.991852 0.0245074 0.0 
0.948073 -0.164201 0.0 
1 0 0.0 
1.1588 0.036475 0.0 
0.961591 0.190117 0.0 
0.992794 0.0230155 0.0 
1.14326 -0.0857077 0.0 
1.04399 0.0142686 0.0 
1.04434 0.0159605 0.0 
0.982899 0.0289377 0.0 
0.995362 0.0112998 0.0 
1.12768 0.232871 0.0 
1.11884 0.0918229 0.0 
0.994245 0.0194906 0.0 
0.135287 0.00598205 0.0 
0.958475 0.00109108 0.0 
0.992123 0.0120969 0.0 
0.995291 0.0120093 0.0 
0.323093 0.00655094 0.0 
0.985556 0.0231426 0.0 
0.948427 -0.0294362 0.0 
0.953608 -0.00692525 0.0 
0.0948131 -0.010992 0.0 
1 0 0.0 
1.072 0 0.0 
1.00779 0.166394 0.0 
1.11948 -0.146538 0.0 
0.932011 0.0357796 0.0 
1.11237 -0.130626 0.0 
0.290895 0.00700427 0.0 
0.07999 -0.00583834 0.0 
0.989669 0.0128263 0.0 
0.985689 0.0216601 0.0 
0.987471 0.0159603 0.0 
0.991687 0.0142497 0.0 
1.10741 -0.173778 0.0 
1.06763 -0.0108521 0.0 
1.07983 0.147605 0.0 
1.12188 0.0848088 0.0 
0.198383 0.00938898 0.0 
0.956749 0.0791666 0.0 
1.00057 0.0201119 0.0 
1.11068 0.257648 0.0 
0.972307 0.0324654 0.0 
1.06681 -0.0147372 0.0 
0.959335 0.0378017 0.0 
1.06647 -0.00755022 0.0 
0.446611 -0.000123817 0.0 
0.0799753 0.00680975 0.0 
0.0703389 0.0148859 0.0 
0.257474 0.00730674 0.0 
0.999818 0.0122206 0.0 
0.0815296 0.000997467 0.0 
1.05989 -0.00222589 0.0 
1.15854 -0.043456 0.0 
1.06793 -0.00525903 0.0 
1 0 0.0 
0.999764 0.0158399 0.0 
1.06595 0.000519901 0.0 
0.979164 0.0318674 0.0 
0.096285 0.00727161 0.0 
1.05965 0.00475736 0.0 
0.0780149 -0.00223125 0.0 
1.05694 0.0123278 0.0 
0.920331 0.0279705 0.0 
1.04249 7.7413e-05 0.0 
0.957401 0.0582423 0.0 
0.999939 0.0211032 0.0 
1.19543 -0.11068 0.0 
0.638777 -0.00336796 0.0 
1.03546 -0.0315881 0.0 
1.04142 -0.037062 0.0 
1.06692 -0.0452874 0.0 
1.05556 0.00992656 0.0 
1.06735 -0.0130819 0.0 
1.19061 0.0246599 0.0 
1.04203 0.0139302 0.0 
1.24614 0.0808683 0.0 
1.03533 0.0297646 0.0 
0.999968 0.0168829 0.0 
1.18224 0.105593 0.0 
1.06479 -0.0199075 0.0 
0.970024 -0.0460567 0.0 
0.947801 0.074119 0.0 
0.944245 0.0372823 0.0 
1.01434 0.0414181 0.0 
1.1378 0.000191346 0.0 
0.928911 0.0326277 0.0 
1.00525 -0.00631227 0.0 
1.06939 0 0.0 
1.06338 -0.00373992 0.0 
0.933849 0.0543849 0.0 
1.13919 -0.164095 0.0 
0.935562 0.160683 0.0 
1.102 -0.195188 0.0 
0.952535 -0.0201806 0.0 
1.08727 0.251481 0.0 
0.983364 0.0272432 0.0 
1.08793 0.105283 0.0 
0.784905 0.101638 0.0 
1.17582 0.107854 0.0 
0.43781 0.00363349 0.0 
1.07427 0.187024 0.0 
1.00404 0.0211792 0.0 
1.05668 0.0151842 0.0 
1.043 0.00856448 0.0 
1.04764 -0.00115976 0.0 
1.04618 -4.69417e-05 0.0 
0.0689275 0.0136578 0.0 
1.04198 0.00189183 0.0 
-0.0717625 0.0237599 0.0 
1.04512 -0.0360152 0.0 
1.00418 0.0347647 0.0 
1.04464 0.00920187 0.0 
1 0 0.0 
0.983346 0.02608 0.0 
1.19341 0.0976001 0.0 
0.739533 -0.0327696 0.0 
0.999617 0.0152831 0.0 
0.991948 0.0387818 0.0 
1.0501 0.00998123 0.0 
1.05495 0.00506489 0.0 
0.93972 0.189384 0.0 
0.777213 0.130742 0.0 
1.00438 0.0182499 0.0 
1.1374 0.124223 0.0 
0.999569 0.24379 0.0 
0.999128 0.0119259 0.0 
0.986073 0.0289957 0.0 
1.05134 0.000940075 0.0 
0.937848 0.124877 0.0 
0.144111 0.0179019 0.0 
1.05035 0.00309629 0.0 
0.172635 0.0988469 0.0 
1.05052 -0.00116471 0.0 
0.996453 -0.0045295 0.0 
1.01657 0.0466351 0.0 
1.11561 -0.0448063 0.0 
1.0471 0.00206233 0.0 
0.957106 -0.00631756 0.0 
0.330555 0.013395 0.0 
1.06347 -0.0232761 0.0 
0.946643 -0.00150982 0.0 
0.999824 0.0149768 0.0 
1.06095 -0.0282101 0.0 
0.941833 0.0658034 0.0 
1.19796 -0.0460829 0.0 
0.233371 -0.00933597 0.0 
0.570804 -0.00641217 0.0 
0.94115 -0.0046948 0.0 
0.964261 0.272776 0.0 
0.250162 0.0478811 0.0 
0.996356 0.316316 0.0 
0.911422 0.00254419 0.0 
1.07899 -0.0435397 0.0 
0.670721 0.0072483 0.0 
0.356007 0.116267 0.0 
1.10346 0.071096 0.0 
0.998725 0.0120339 0.0 
0.521208 0.00654394 0.0 
0.130985 0.0408253 0.0 
0.914426 -0.0434806 0.0 
0.728878 -0.0149662 0.0 
1.03187 0.046275 0.0 
0.998793 0.0116315 0.0 
1.02605 -0.0983493 0.0 
1.11311 -0.035023 0.0 
1.17637 0.0271275 0.0 
0.0805777 6.79e-05 0.0 
0.93629 -0.0577641 0.0 
1.03482 0.043224 0.0 
1.06745 -0.00870478 0.0 
0.938121 -0.00909012 0.0 
0.0750532 0.0065959 0.0 
0.998819 0.0125514 0.0 
1.17478 0.0316343 0.0 
1.05933 -0.0274324 0.0 
0.963609 0.21651 0.0 
1.05315 0.0156348 0.0 
1.06905 -0.000346956 0.0 
1.06916 0.00447061 0.0 
0.954577 0.0375674 0.0 
1.06131 -0.0252064 0.0 
0.998949 0.0137262 0.0 
0.952286 0.00698872 0.0 
1.13697 -0.0340379 0.0 
1.05529 0.019768 0.0 
0.989393 0.00722146 0.0 
0.953467 0.0152645 0.0 
0.998989 0.0139104 0.0 
1.05863 0.00454575 0.0 
1.04138 -0.00568394 0.0 
1.06113 -0.0224408 0.0 
0.990558 0.00886029 0.0 
1.02214 0.0466761 0.0 
0.998901 0.0131759 0.0 
1.04496 -0.026993 0.0 
1.0664 0.0188224 0.0 
0.0616428 0.0218401 0.0 
0.0496416 0.0109393 0.0 
1.0696 0.0147653 0.0 
0.905263 -0.0565251 0.0 
0.886699 -0.0482637 0.0 
0.876282 0.12093 0.0 
0.999437 0.013847 0.0 
0.998881 0.0138303 0.0 
0.962897 -0.0132903 0.0 
0.96505 -0.00207007 0.0 
1.03467 0.0261558 0.0 
0.963546 0.235383 0.0 
1.06731 0.152851 0.0 
1.03015 -0.0447309 0.0 
0.0686593 0.00109998 0.0 
1.16386 0.0264752 0.0 
1.10295 0.146405 0.0 
0.998737 0.0133543 0.0 
1.01608 0.0363139 0.0 
1.11569 -0.0072902 0.0 
0.982876 0.0208755 0.0 
0.934522 0.0464967 0.0 
1.03056 -0.0295959 0.0 
0.97343 0.0373675 0.0 
0.941209 0.109246 0.0 
0.934188 0.0590531 0.0 
0.780368 -0.0295958 0.0 
0.962933 0.00703454 0.0 
0.786634 -0.0484095 0.0 
1.00105 0.0180352 0.0 
1.03199 0.0428084 0.0 
0.953887 -0.010314 0.0 
0.961631 -0.00111467 0.0 
0.922644 0.034251 0.0 
1.10013 0.249885 0.0 
0.972392 0.00598942 0.0 
0.94112 0.292217 0.0 
0.945447 0.0327992 0.0 
0.97501 0.226939 0.0 
0.848731 0.286289 0.0 
0.995224 0.00743168 0.0 
1.00086 0 0.0 
0.998839 0.0120243 0.0 
0.977329 0.00144611 0.0 
0.890914 0.154492 0.0 
0.1298 0.00875668 0.0 
1.0109 0.0430244 0.0 
0.980818 0.00705615 0.0 
0.999417 0.0124194 0.0 
0.915687 -0.0719567 0.0 
0.916654 0.033046 0.0 
1.19524 -0.0346733 0.0 
0.998728 0.0122917 0.0 
0.946678 0.0731287 0.0 
0.732374 -0.0726876 0.0 
1.03339 -0.0236627 0.0 
0.936249 0.0637985 0.0 
0.995328 0.0160913 0.0 
0.94448 0.0275457 0.0 
0.991126 0.0199297 0.0 
0.079143 0.0119966 0.0 
0.723497 -0.0625695 0.0 
1.04406 -0.00307961 0.0 
1.15805 0.0821993 0.0 
1.13722 -0.0204776 0.0 
0.997723 0.0106023 0.0 
0.982267 0.0184984 0.0 
1.00222 0.20291 0.0 
1.11425 0.159053 0.0 
0.579233 0.0956943 0.0 
0.95103 0.189591 0.0 
0.981644 0.0188672 0.0 
0.24904 -0.0201645 0.0 
0.982646 0.0217844 0.0 
0.997324 0.0126425 0.0 
1.00037 0.0194801 0.0 
0.193826 -0.0135661 0.0 
0.155158 -0.00364058 0.0 
0.98186 0.030045 0.0 
0.335194 0.0581131 0.0 
1.1924 0.0934837 0.0 
1.01012 0.0425255 0.0 
0.981027 0.0323111 0.0 
0.999738 0.0193857 0.0 
0.97798 0.0111501 0.0 
0.930334 0.068866 0.0 
0.976658 0.0257039 0.0 
0.85177 0.285442 0.0 
0.453831 -0.0217551 0.0 
0.179096 -0.00514564 0.0 
0.968259 0.0134505 0.0 
0.974858 0.0120633 0.0 
1.0542 0.205592 0.0 
0.259094 -0.0195201 0.0 
0.939919 0.0209943 0.0 
1.0338 -0.0391258 0.0 
0.98279 0.246405 0.0 
0.999287 0.0134876 0.0 
0.922562 0.0820201 0.0 
0.972467 0.030968 0.0 
0.930108 0.143667 0.0 
0.955856 0.157179 0.0 
1.00857 0.255888 0.0 
0.670313 -0.0180274 0.0 
0.937299 -0.0524967 0.0 
1.11749 0.0592622 0.0 
0.466295 0.0937768 0.0 
0.926382 -0.0598038 0.0 
0.0747838 0.0168376 0.0 
0.898995 -0.0128873 0.0 
0.745116 0.136323 0.0 
0.915036 -0.0665385 0.0 
0.922142 -0.0562761 0.0 
0.611793 0.165283 0.0 
1.04684 0.00709644 0.0 
0.940824 0.173845 0.0 
0.879624 -0.00491161 0.0 
0.928281 -0.0538684 0.0 
1.04081 -0.00563043 0.0 
0.337838 0.04153 0.0 
1.0375 -0.00890033 0.0 
0.86605 0.00744542 0.0 
0.895241 0.217716 0.0 
1.04903 -0.00155867 0.0 
0.906554 -0.0882091 0.0 
0.918585 0.183493 0.0 
0.239431 -0.0215397 0.0 
1.13112 0.0620607 0.0 
1.03184 0.171352 0.0 
0.830144 0.380988 0.0 
1.10211 0.166186 0.0 
1.06303 0.260747 0.0 
0.920325 -0.0332231 0.0 
0.694912 -0.087152 0.0 
0.977769 0.0333215 0.0 
0.516484 0.0620799 0.0 
0.918371 -0.0527553 0.0 
1.04725 0.0671527 0.0 
0.131367 0.0101709 0.0 
1.04355 0.26444 0.0 
1.05944 0.0411981 0.0 
0.878979 0.105527 0.0 
1.00508 0.0216939 0.0 
0.892765 0.0671163 0.0 
0.0849595 0.0197826 0.0 
0.853264 0.0765848 0.0 
0.949484 0.0369197 0.0 
0.947382 0.00383888 0.0 
1.17404 -0.0397962 0.0 
0.762891 0.335659 0.0 
0.847612 0.0893197 0.0 
1.02922 0.0731397 0.0 
1.08191 -0.0958692 0.0 
0.921026 -0.0469836 0.0 
1.03889 0.27266 0.0 
0.964786 0.0168552 0.0 
0.995848 0.0401341 0.0 
0.910282 0.0772111 0.0 
0.924587 0.112941 0.0 
0.910715 0.0355024 0.0 
1.00902 0.0272149 0.0 
0.919826 0.106232 0.0 
0.917232 0.221286 0.0 
0.999214 0.0125827 0.0 
1.09186 -0.071472 0.0 
0.256323 -0.0254786 0.0 
1.05244 0.252093 0.0 
0.966021 0.203599 0.0 
0.80701 0.151482 0.0 
0.826888 0.0383124 0.0 
0.886305 0.0299198 0.0 
1.0415 0.305876 0.0 
0.999602 0.0172363 0.0 
1.1249 0.141565 0.0 
1.03286 0.227234 0.0 
0.886271 -0.0483583 0.0 
0.922954 -0.00195887 0.0 
0.858278 0.158708 0.0 
0.910989 0.0206982 0.0 
0.885177 0.0149018 0.0 
0.932307 -0.0461856 0.0 
0.934013 0.207725 0.0 
0.995763 0.0301889 0.0 
0.999598 0.0147497 0.0 
0.0753146 0.0247216 0.0 
0.079151 0.0189251 0.0 
0.912946 0.0278259 0.0 
0.524549 0.153623 0.0 
1.03881 -0.00740537 0.0 
0.921679 -0.0164275 0.0 
0.978031 -0.00104541 0.0 
0.902632 0.0766767 0.0 
0.841809 0.0067727 0.0 
1.08185 -0.0678625 0.0 
0.95511 0.00794732 0.0 
0.975564 0.00906305 0.0 
1.08369 0.268636 0.0 
0.173899 -0.00468877 0.0 
0.930253 0.300673 0.0 
0.973045 0.0025839 0.0 
0.9891 0.0541174 0.0 
1.06864 -0.229574 0.0 
0.969023 0.00463367 0.0 
0.961766 0.0125311 0.0 
0.99773 0.0131949 0.0 
1.03795 -0.00864048 0.0 
0.792993 0.109118 0.0 
0.904496 0.0184361 0.0 
0.990943 0.00536348 0.0 
1.02814 -0.18303 0.0 
0.995204 0.0153719 0.0 
0.935537 0.0241464 0.0 
0.807717 0.168525 0.0 
0.950071 -0.00856205 0.0 
0.99813 0.0100849 0.0 
0.938799 0.0046926 0.0 
0.188011 0.128429 0.0 
0.943911 -0.00846769 0.0 
1.06535 -0.010046 0.0 
0.953586 0.289195 0.0 
0.0652097 0.00656137 0.0 
1.10084 0.25604 0.0 
0.988023 0.0148386 0.0 
0.886909 -0.119925 0.0 
0.968916 0.00179356 0.0 
0.95968 0.00911413 0.0 
0.959931 0.00450251 0.0 
0.542289 0.13474 0.0 
0.961971 0.00181462 0.0 
0.956073 -0.0136558 0.0 
0.649798 0.1843 0.0 
1.03465 -0.0124495 0.0 
1.03539 0.0452898 0.0 
0.995658 0.266561 0.0 
0.981093 0.0207844 0.0 
0.975548 0.0290017 0.0 
0.964734 0.00389444 0.0 
0.893488 0.0129534 0.0 
0.959025 -0.0179613 0.0 
0.109692 0.000573638 0.0 
0.968778 -0.000275938 0.0 
1.06053 0.016588 0.0 
0.876136 0.16831 0.0 
0.996499 0.0119939 0.0 
1.06646 0.0273594 0.0 
1.05819 0.0958264 0.0 
1.10221 -0.0716131 0.0 
1.09712 0.106079 0.0 
0.976593 -0.00301481 0.0 
0.876771 0.183281 0.0 
0.996658 0.0143954 0.0 
0.996968 0.0110736 0.0 
0.889801 -0.0412335 0.0 
0.978778 0.0257597 0.0 
1.16371 -0.227376 0.0 
0.637684 0.0167496 0.0 
0.942093 0.0416228 0.0 
1.01697 0.303235 0.0 
0.907347 0.353579 0.0 
0.839058 0.132292 0.0 
1.16045 0.0779175 0.0 
0.153599 0.133953 0.0 
1.01744 0.290237 0.0 
1.06547 0.266662 0.0 
1.0396 -0.00578545 0.0 
0.938899 0.0944149 0.0 
0.044912 0.00566258 0.0 
1.17587 0.149183 0.0 
0.977895 0.0318622 0.0 
0.910039 0.122273 0.0 
1.12587 0.220959 0.0 
0.85142 0.124475 0.0 
-0.0438114 -0.0184532 0.0 
0.978985 0.0299872 0.0 
0.925188 0.0737538 0.0 
0.741977 0.140782 0.0 
0.979817 0.0267219 0.0 
0.911794 0.1504 0.0 
0.995901 0.0124688 0.0 
0.90318 0.101647 0.0 
0.979311 0.0278953 0.0 
0.853991 0.0557261 0.0 
0.831058 0.0225427 0.0 
0.904248 0.164476 0.0 
0.998779 0.0113164 0.0 
0.968989 -0.00475581 0.0 
0.980276 0.0250599 0.0 
0.999127 0.0175142 0.0 
0.962842 -0.00478793 0.0 
0.961821 -0.00846667 0.0 
0.966293 -0.00424292 0.0 
0.938299 -0.0415638 0.0 
0.925965 0.0582093 0.0 
0.926565 0.0882606 0.0 
1.04179 -0.00122289 0.0 
0.98986 0.0319756 0.0 
1.06521 0.0284823 0.0 
0.999225 0.0144207 0.0 
1.07872 -0.00708478 0.0 
1.00566 0.0801105 0.0 
0.949802 0.0132713 0.0 
0.977032 0.0270713 0.0 
1.04977 -0.161387 0.0 
1.10042 0.244044 0.0 
1.1242 0.232371 0.0 
0.93339 -0.0322785 0.0 
0.999117 0.0139504 0.0 
0.951295 0.0109203 0.0 
0.996402 0.0135477 0.0 
0.979606 0.0053312 0.0 
1.05586 0.00982968 0.0 
1.04859 -0.172083 0.0 
0.0659576 0.000543915 0.0 