<VTKFile type="UnstructuredGrid" version="0.1" byte_order="LittleEndian">
  <UnstructuredGrid>
    <Piece NumberOfPoints="9712" NumberOfCells="19403">
      <Points>
        <DataArray type = "Float64" NumberOfComponents="3" format="ascii">
-5 -7 0.0 
15.5 -7 0.0 
15.5 7 0.0 
-5 7 0.0 
-1.6546 1.77742 0.0 
-2.13867 1.86504 0.0 
-1.83467 1.79143 0.0 
1.47969 -2.21179 0.0 
1.36003 -2.38618 0.0 
1.4346 -2.45048 0.0 
-2.04214 1.94165 0.0 
-0.20425 1.17338 0.0 
-2.07648 1.81911 0.0 
-2.00827 1.89081 0.0 
-2.05492 1.98872 0.0 
0.192693 0.536219 0.0 
0.154285 1.75648 0.0 
1.1379 -1.62057 0.0 
-2.11226 1.96977 0.0 
-1.74119 1.75327 0.0 
1.14499 -1.58184 0.0 
-1.94373 2.37229 0.0 
1.50619 -0.664239 0.0 
1.99658 -1.76705 0.0 
1.7229 -1.18344 0.0 
-1.97759 2.52091 0.0 
-0.768046 0.387136 0.0 
1.32657 -1.43969 0.0 
1.90142 0.24821 0.0 
-0.93264 1.51038 0.0 
1.09557 0.967223 0.0 
0.627111 0.757352 0.0 
-2.05707 2.31394 0.0 
1.34027 -2.45136 0.0 
-0.725097 0.397516 0.0 
-0.666094 2.30428 0.0 
-0.73829 -0.279965 0.0 
1.73336 -1.08822 0.0 
1.88466 -1.24421 0.0 
1.50539 -1.23752 0.0 
1.65978 -1.30759 0.0 
-0.0409718 0.542603 0.0 
1.6005 -1.1227 0.0 
1.78439 -0.941488 0.0 
1.86015 -1.54236 0.0 
1.49308 -1.40058 0.0 
2.34892 -1.47149 0.0 
2.13832 -1.3246 0.0 
1.73061 0.751302 0.0 
-0.580328 0.526903 0.0 
1.51013 -2.1595 0.0 
-1.65424 3.45779 0.0 
-1.51397 2.46352 0.0 
1.42773 -2.17867 0.0 
0.304353 0.497878 0.0 
2.24628 0.228293 0.0 
1.51258 -2.27933 0.0 
-1.60346 3.44299 0.0 
-1.71408 2.36227 0.0 
2.17421 0.530405 0.0 
2.42 0.316451 0.0 
-1.63642 3.31911 0.0 
2.53942 -0.995036 0.0 
0.750003 0.810439 0.0 
2.04736 0.40918 0.0 
1.19615 -1.50641 0.0 
2.13474 0.494063 0.0 
0.547924 0.306722 0.0 
-0.2059 0.361394 0.0 
2.2127 0.547693 0.0 
1.41442 -0.597105 0.0 
1.52233 -1.46252 0.0 
-1.84114 2.53924 0.0 
-5 -2.53894 0.0 
2.32127 0.371156 0.0 
-1.69186 3.33379 0.0 
-0.964779 0.566136 0.0 
-1.81311 2.48387 0.0 
-1.78557 3.38304 0.0 
1.48278 0.914136 0.0 
2.51531 -1.89689 0.0 
1.20982 -0.330514 0.0 
0.408434 0.319657 0.0 
0.95023 0.60993 0.0 
-0.752349 0.440796 0.0 
-0.998248 0.564019 0.0 
-1.73165 3.36299 0.0 
1.24353 -1.49063 0.0 
0.942095 0.817189 0.0 
-1.77816 2.47096 0.0 
2.48183 -1.95479 0.0 
1.33574 -1.77854 0.0 
0.823335 1.12085 0.0 
-0.36308 0.598468 0.0 
0.745466 0.783414 0.0 
-1.88344 2.8521 0.0 
-1.79794 3.52221 0.0 
3.0087 0.272815 0.0 
-1.81486 2.66014 0.0 
0.375911 -0.403668 0.0 
-0.68323 0.487288 0.0 
-0.34187 -0.274923 0.0 
-0.293875 -0.201368 0.0 
1.61018 -1.767 0.0 
-0.448275 -0.347267 0.0 
-1.08687 0.352015 0.0 
1.29257 -1.76345 0.0 
1.67658 -1.49551 0.0 
1.19193 0.533009 0.0 
1.21582 -1.91654 0.0 
-0.36438 -0.346225 0.0 
-0.92534 0.330346 0.0 
2.3836 0.287756 0.0 
1.68841 0.639887 0.0 
1.59001 -1.89458 0.0 
1.14818 -1.92143 0.0 
1.28996 -2.19426 0.0 
1.37603 -1.8763 0.0 
1.23834 -2.09141 0.0 
1.11702 -2.06287 0.0 
0.691829 0.463808 0.0 
1.46523 -2.03459 0.0 
-0.123547 0.424486 0.0 
-1.3311 2.12174 0.0 
1.08169 -1.90074 0.0 
1.87975 -2.15971 0.0 
1.10131 -1.78593 0.0 
1.13722 0.534683 0.0 
1.42465 -1.59031 0.0 
-1.45435 2.47344 0.0 
1.41998 -1.98207 0.0 
0.463917 1.8787 0.0 
-1.72896 2.89571 0.0 
1.12419 -1.84975 0.0 
1.59054 -1.20634 0.0 
0.46124 0.621002 0.0 
0.806438 -1.00204 0.0 
2.1804 0.349761 0.0 
2.21142 -1.6418 0.0 
1.10152 -0.274558 0.0 
2.23388 0.387302 0.0 
0.137769 0.567007 0.0 
1.88736 0.267391 0.0 
1.26821 -1.94267 0.0 
0.21033 -0.605707 0.0 
2.61094 -1.50046 0.0 
0.819837 0.743337 0.0 
-1.4303 2.07799 0.0 
1.82013 0.322126 0.0 
-1.47649 2.2099 0.0 
1.15745 -0.274223 0.0 
-1.81198 2.24994 0.0 
2.34337 -1.67775 0.0 
-1.13329 1.37877 0.0 
-0.828215 1.05292 0.0 
2.46752 -1.53452 0.0 
-1.69915 2.18529 0.0 
-0.404416 -0.286271 0.0 
-1.23501 1.31766 0.0 
2.11757 -1.50659 0.0 
-1.08535 1.28274 0.0 
2.58548 -1.70783 0.0 
0.24729 -0.572345 0.0 
-1.66963 2.25319 0.0 
1.58322 -1.62308 0.0 
-0.367923 -0.306026 0.0 
0.391521 1.44485 0.0 
1.88977 -2.46319 0.0 
1.5943 -1.53613 0.0 
-0.357143 -0.23651 0.0 
0.82621 0.80563 0.0 
-1.59261 2.31884 0.0 
-0.47244 -0.307516 0.0 
-0.40334 -0.326688 0.0 
-2.00063 2.11543 0.0 
1.55514 -1.95078 0.0 
-1.40431 2.26352 0.0 
-0.0265928 0.573714 0.0 
1.17093 1.10579 0.0 
-1.77907 2.22111 0.0 
0.682788 0.329642 0.0 
-0.54475 2.15572 0.0 
-0.288592 0.289433 0.0 
-1.43199 2.16349 0.0 
-1.45029 2.25134 0.0 
1.5535 -1.79992 0.0 
-1.06406 1.08381 0.0 
1.72954 1.44966 0.0 
0.582806 0.515814 0.0 
0.582876 -0.679913 0.0 
1.32351 -0.355916 0.0 
-0.47505 0.577092 0.0 
-0.371167 0.227715 0.0 
1.52235 -1.8529 0.0 
-0.429822 -0.244811 0.0 
-0.53237 -0.24648 0.0 
-0.393983 -0.210364 0.0 
0.652895 0.317361 0.0 
1.55812 -1.70765 0.0 
1.63021 0.325622 0.0 
0.442731 0.358729 0.0 
1.22925 -1.85192 0.0 
1.43517 -1.79082 0.0 
1.39317 -1.6984 0.0 
1.62965 0.295952 0.0 
0.905462 0.793465 0.0 
1.04036 -1.64811 0.0 
2.1131 -1.72466 0.0 
-0.743911 0.369492 0.0 
1.14427 -1.99314 0.0 
1.26033 -2.0209 0.0 
-1.70955 2.07308 0.0 
0.910023 -1.62976 0.0 
-0.313059 -0.0954838 0.0 
-1.77334 2.3988 0.0 
-0.311958 -0.24042 0.0 
2.53315 0.325608 0.0 
-0.273728 -0.226719 0.0 
-0.646401 0.379627 0.0 
1.52426 0.616074 0.0 
2.21703 -1.79499 0.0 
2.71108 0.312216 0.0 
0.759924 1.093 0.0 
-1.69271 2.12368 0.0 
0.255794 0.540969 0.0 
0.0534699 0.562158 0.0 
-1.5679 2.22408 0.0 
-1.66906 2.45165 0.0 
-1.51895 2.09449 0.0 
2.16948 0.408238 0.0 
-0.818806 0.680638 0.0 
-0.826868 0.642087 0.0 
0.519855 0.276992 0.0 
-0.716682 1.18602 0.0 
-0.649974 -0.148775 0.0 
0.457368 0.256619 0.0 
0.517407 0.248194 0.0 
0.327129 0.39802 0.0 
0.533249 -0.878832 0.0 
-0.870735 0.634904 0.0 
1.19219 1.07557 0.0 
2.35922 0.366028 0.0 
-1.66911 3.66723 0.0 
-0.857603 1.54934 0.0 
-0.379189 2.30131 0.0 
-0.941007 1.36523 0.0 
-1.58662 2.49682 0.0 
-0.545297 0.352587 0.0 
0.327944 -0.744683 0.0 
-0.312756 0.524741 0.0 
-0.107843 0.506233 0.0 
2.13378 -2.36584 0.0 
1.52689 0.686953 0.0 
-0.119983 0.327909 0.0 
1.02161 -1.53072 0.0 
1.51507 0.39695 0.0 
-0.674484 1.02605 0.0 
-0.564724 -0.148435 0.0 
0.409388 0.290913 0.0 
0.252349 0.30842 0.0 
-1.09282 1.45998 0.0 
1.45674 -1.54484 0.0 
-0.266777 0.782169 0.0 
0.91327 -0.874389 0.0 
1.01208 1.13309 0.0 
-0.897136 1.35063 0.0 
-0.846484 0.489353 0.0 
1.47563 0.663768 0.0 
-1.22282 2.05021 0.0 
0.348906 0.416714 0.0 
1.41913 0.964648 0.0 
0.933289 -0.839038 0.0 
-1.85066 1.40221 0.0 
0.142477 1.99435 0.0 
-0.717809 0.341194 0.0 
-2.21177 1.41584 0.0 
0.396571 0.350929 0.0 
1.25171 -1.60721 0.0 
0.736798 0.393502 0.0 
-0.661427 0.19031 0.0 
2.18751 -2.32769 0.0 
-1.00908 1.6747 0.0 
2.21416 -2.07269 0.0 
-0.779194 0.642011 0.0 
-1.02312 1.3939 0.0 
2.08809 -2.24876 0.0 
-5 -4.48794 0.0 
1.61792 -1.46215 0.0 
-0.974627 1.38947 0.0 
1.81166 -2.48446 0.0 
-1.03635 1.47474 0.0 
0.869004 -1.74424 0.0 
0.956579 -1.78598 0.0 
1.07495 0.540689 0.0 
-1.08005 1.37763 0.0 
0.914755 -0.803058 0.0 
0.611759 -0.305322 0.0 
1.70043 -1.41356 0.0 
0.75708 -0.631542 0.0 
1.21215 1.01979 0.0 
-0.586902 0.440014 0.0 
1.9251 -2.56336 0.0 
-1.58261 1.91091 0.0 
-0.746541 1.26087 0.0 
-1.49915 1.13657 0.0 
-1.46675 0.971536 0.0 
-1.05881 0.930935 0.0 
0.71826 0.415078 0.0 
-0.701697 0.526982 0.0 
-1.56194 2.05157 0.0 
1.15988 0.991244 0.0 
1.38676 0.949615 0.0 
-1.61697 2.02689 0.0 
1.13748 -0.357331 0.0 
-1.8456 2.04561 0.0 
0.253686 -0.756334 0.0 
-1.53603 1.86509 0.0 
-1.43465 0.924137 0.0 
-1.00273 1.27416 0.0 
-1.03063 1.5132 0.0 
-1.32483 1.94769 0.0 
-0.965552 1.61445 0.0 
-0.239859 -0.245939 0.0 
-5 3.01776 0.0 
-5 -0.248741 0.0 
0.517491 1.87079 0.0 
-1.18776 1.8875 0.0 
2.27458 0.36201 0.0 
1.9794 0.331487 0.0 
0.503086 0.510306 0.0 
1.26387 -0.370702 0.0 
1.24483 0.550197 0.0 
1.12871 0.979556 0.0 
-1.48659 1.83259 0.0 
1.0672 0.958366 0.0 
-1.16856 1.61214 0.0 
-0.218637 -0.230696 0.0 
-5 1.81431 0.0 
1.37014 1.04658 0.0 
0.0950623 0.557621 0.0 
-1.23613 1.67303 0.0 
0.953731 -0.709843 0.0 
2.07568 -1.85385 0.0 
2.10836 -1.82014 0.0 
-0.994952 1.33552 0.0 
-1.86986 1.52312 0.0 
0.515812 0.447542 0.0 
0.842446 0.992035 0.0 
-1.42353 1.8223 0.0 
2.091 0.354014 0.0 
-0.937663 0.401428 0.0 
-1.69305 1.41997 0.0 
-1.82465 1.55127 0.0 
2.15192 0.384657 0.0 
-1.17972 1.37998 0.0 
-0.718866 -0.0130647 0.0 
-0.927867 0.290435 0.0 
1.56509 0.300406 0.0 
-5 -3.04052 0.0 
9.98027 -7 0.0 
0.176009 0.694641 0.0 
0.597997 -0.559941 0.0 
-0.546583 0.4849 0.0 
0.602022 -0.657834 0.0 
2.17737 0.379672 0.0 
1.89809 0.287017 0.0 
-1.58883 1.35796 0.0 
-1.2284 1.37063 0.0 
-1.43937 1.35342 0.0 
-1.59664 1.47263 0.0 
0.577431 -0.368705 0.0 
1.5263 -1.51093 0.0 
0.479666 0.796509 0.0 
0.894995 1.01463 0.0 
2.22312 0.363016 0.0 
-0.320562 0.726481 0.0 
-1.30188 2.41386 0.0 
0.43802 0.434693 0.0 
-0.761697 0.762024 0.0 
1.45688 -1.49591 0.0 
-0.65072 0.676835 0.0 
1.6097 -1.41509 0.0 
2.25768 0.399237 0.0 
1.85518 0.299709 0.0 
2.14618 0.290757 0.0 
2.25222 0.371677 0.0 
-1.93063 2.91367 0.0 
1.52717 0.319618 0.0 
1.67964 -1.62237 0.0 
1.35962 -0.439169 0.0 
1.63007 -1.54335 0.0 
-5 -0.764504 0.0 
-1.61377 2.62271 0.0 
1.73865 -1.57725 0.0 
-0.908306 1.23669 0.0 
1.60766 0.330292 0.0 
1.82509 -1.63054 0.0 
1.90521 0.312457 0.0 
1.98719 -1.6488 0.0 
-0.528791 0.39225 0.0 
1.94978 -2.39003 0.0 
-0.472559 0.718465 0.0 
-1.28058 2.26572 0.0 
0.881581 -0.556282 0.0 
2.26369 0.42542 0.0 
0.917309 -1.69962 0.0 
0.853954 -1.60945 0.0 
1.30086 -0.404316 0.0 
1.99565 -2.46852 0.0 
1.49445 -1.47573 0.0 
1.68285 0.863315 0.0 
2.03074 -2.37549 0.0 
2.52279 -0.506167 0.0 
2.56049 -1.76899 0.0 
-1.52889 2.56597 0.0 
2.81136 -0.570221 0.0 
1.3688 -1.46095 0.0 
1.29524 -0.373946 0.0 
-0.350504 0.671928 0.0 
-0.590282 0.564035 0.0 
-0.054366 2.16706 0.0 
1.50819 1.22548 0.0 
-0.548222 0.453941 0.0 
2.19936 -2.5207 0.0 
12.2704 -7 0.0 
1.6811 -1.36761 0.0 
-0.449261 0.559535 0.0 
0.537017 -0.527614 0.0 
-0.00733391 0.553304 0.0 
0.494109 -0.356396 0.0 
-0.7939 0.0827441 0.0 
0.39888 0.467333 0.0 
-1.04288 1.34095 0.0 
0.605019 1.02824 0.0 
0.847559 0.374727 0.0 
1.00336 0.618307 0.0 
2.1955 0.399186 0.0 
0.656973 0.401158 0.0 
-0.998431 2.73564 0.0 
[...]
<PointData>
  <DataArray type = "Float64" Name="VitesseP1" NumberOfComponents="3" format="ascii">
1 0 0.0 
1.05203 0 0.0 
1.01449 0 0.0 
1 0 0.0 
0.994439 0.0161811 0.0 
0.996806 0.0114582 0.0 
0.995348 0.0139661 0.0 
1.03504 -0.00560279 0.0 
1.03537 -0.00949152 0.0 
1.03805 -0.00906148 0.0 
0.99766 0.012408 0.0 
0.985668 0.072575 0.0 
0.996494 0.0117921 0.0 
0.9967 0.0125978 0.0 
0.998841 0.0124153 0.0 
0.992538 0.216991 0.0 
1.01778 0.0546956 0.0 
1.05206 -0.0243815 0.0 
0.99877 0.0118237 0.0 
0.994874 0.0148992 0.0 
1.05489 -0.0251111 0.0 
0.998717 0.0138071 0.0 
1.15834 -0.0184304 0.0 
1.04867 0.0113896 0.0 
1.05814 0.00166241 0.0 
0.998668 0.0133964 0.0 
0.944401 0.0088791 0.0 
1.05953 -0.0197799 0.0 
0.091263 0.0155542 0.0 
0.988408 0.0317989 0.0 
1.13774 0.0627302 0.0 
1.10902 0.138991 0.0 
0.998727 0.0127877 0.0 
1.02747 -0.0219046 0.0 
0.941254 0.0124467 0.0 
1.00512 0.0312027 0.0 
0.937062 -0.0509356 0.0 
1.07867 0.00275945 0.0 
1.05047 0.0115496 0.0 
1.05086 -0.0123713 0.0 
1.05299 -0.00233007 0.0 
0.926944 0.151055 0.0 
1.07035 -0.00698929 0.0 
1.12026 0.00790273 0.0 
1.06304 0.0077663 0.0 
1.05955 -0.0114479 0.0 
1.0534 0.0324172 0.0 
1.04967 0.0251948 0.0 
1.18668 0.0145127 0.0 
0.939448 0.0356795 0.0 
1.03504 -0.00506121 0.0 
1.0025 0.0128775 0.0 
0.999607 0.0180586 0.0 
1.03462 -0.00701781 0.0 
1.03821 0.241633 0.0 
0.102929 0.0611073 0.0 
1.03499 -0.00475149 0.0 
1.00272 0.0132935 0.0 
0.998918 0.0161064 0.0 
1.18555 -0.0139542 0.0 
0.316658 0.0155378 0.0 
1.0023 0.0135525 0.0 
1.07956 0.0602563 0.0 
1.12118 0.116883 0.0 
0.587154 -0.00708651 0.0 
1.05814 -0.0248037 0.0 
1.1166 -0.00744269 0.0 
0.56248 0.134426 0.0 
0.86284 0.0852465 0.0 
1.20036 -0.0214255 0.0 
1.19792 -0.0301655 0.0 
1.06255 -0.00938424 0.0 
0.998866 0.0145643 0.0 
1 0 0.0 
0.454812 0.00440103 0.0 
1.00207 0.013111 0.0 
0.968015 0.010807 0.0 
0.99889 0.0149202 0.0 
1.00172 0.0122577 0.0 
1.16456 0.0272057 0.0 
1.03497 0.0172429 0.0 
0.770936 -0.0391715 0.0 
0.951425 0.262149 0.0 
1.17211 0.108556 0.0 
0.946046 0.014395 0.0 
0.969829 0.00911275 0.0 
1.002 0.0127026 0.0 
1.05913 -0.0229793 0.0 
1.14084 0.0922408 0.0 
0.998952 0.0152742 0.0 
1.04071 0.021936 0.0 
1.04682 -0.0138447 0.0 
1.09309 0.0769062 0.0 
0.935416 0.0699103 0.0 
1.1237 0.120946 0.0 
0.999695 0.0133709 0.0 
1.00228 0.011482 0.0 
0.185894 -0.192981 0.0 
0.999043 0.0145145 0.0 
1.19314 -0.233226 0.0 
0.943957 0.0231244 0.0 
0.919027 -0.0880097 0.0 
0.916055 -0.0741923 0.0 
1.05002 -0.00351394 0.0 
0.924435 -0.0778886 0.0 
0.966988 -0.00792519 0.0 
1.04696 -0.0156585 0.0 
1.06373 -0.00122569 0.0 
1.19571 0.0731095 0.0 
1.03844 -0.0157031 0.0 
0.920201 -0.0882084 0.0 
0.954668 -0.0034167 0.0 
0.228469 0.035288 0.0 
1.19195 0.0196022 0.0 
1.04324 -0.00377615 0.0 
1.03714 -0.0174782 0.0 
1.03329 -0.00999374 0.0 
1.04253 -0.0111835 0.0 
1.03304 -0.012701 0.0 
1.03147 -0.0167952 0.0 
1.16574 0.180178 0.0 
1.0362 -0.00692997 0.0 
0.877398 0.125661 0.0 
0.998878 0.0215387 0.0 
1.0368 -0.0196849 0.0 
1.03462 0.00491163 0.0 
1.04208 -0.0216292 0.0 
1.1953 0.0813838 0.0 
1.06 -0.0129023 0.0 
0.999848 0.0186984 0.0 
1.03751 -0.00872695 0.0 
1.02629 0.04821 0.0 
1.00059 0.0144535 0.0 
1.03975 -0.0195684 0.0 
1.05447 -0.00708361 0.0 
1.0876 0.186728 0.0 
1.06775 -0.070604 0.0 
0.313382 0.0179817 0.0 
1.05252 0.0214318 0.0 
0.463273 -0.0381736 0.0 
0.488385 0.00163399 0.0 
0.977817 0.195549 0.0 
0.101175 0.0100299 0.0 
1.0378 -0.0137819 0.0 
1.03104 -0.159372 0.0 
1.04047 0.0454326 0.0 
1.13788 0.116021 0.0 
0.99861 0.020117 0.0 
0.13584 0.0069213 0.0 
0.998759 0.0192025 0.0 
0.417199 -0.0172411 0.0 
0.998622 0.0151615 0.0 
1.04637 0.024913 0.0 
0.984892 0.0249767 0.0 
0.973205 0.0346412 0.0 
1.04792 0.0354594 0.0 
0.998442 0.0164246 0.0 
0.922962 -0.0791537 0.0 
0.98393 0.0213714 0.0 
1.05971 0.0204789 0.0 
0.981318 0.025803 0.0 
1.03238 0.0290895 0.0 
1.04051 -0.169848 0.0 
0.998718 0.0167313 0.0 
1.05904 -0.00534432 0.0 
0.920374 -0.0855082 0.0 
1.03174 0.0695472 0.0 
1.03832 0.00154522 0.0 
1.06348 -0.0052696 0.0 
0.91673 -0.0813584 0.0 
1.13082 0.108145 0.0 
0.999017 0.0175396 0.0 
0.927777 -0.0723424 0.0 
0.922344 -0.0821985 0.0 
0.998526 0.0131686 0.0 
1.03993 -0.0047484 0.0 
0.999243 0.0200555 0.0 
0.938985 0.150959 0.0 
1.12417 0.0451006 0.0 
0.998562 0.0155218 0.0 
0.642075 0.109847 0.0 
1.00569 0.0353461 0.0 
0.863398 0.0453285 0.0 
0.998719 0.0199234 0.0 
0.999056 0.0194611 0.0 
1.04782 -0.00554974 0.0 
0.973709 0.024241 0.0 
1.06573 -0.0305856 0.0 
1.14201 0.196505 0.0 
1.10911 -0.126728 0.0 
0.891938 -0.0266637 0.0 
0.93812 0.051847 0.0 
0.875092 0.016393 0.0 
1.04497 -0.006357 0.0 
0.924253 -0.0727448 0.0 
0.933312 -0.0622231 0.0 
0.919074 -0.0739191 0.0 
0.588354 0.110366 0.0 
1.05329 -0.00593562 0.0 
0.0969914 -0.0017476 0.0 
1.03948 0.263541 0.0 
1.04159 -0.0163412 0.0 
1.04742 -0.010049 0.0 
1.05231 -0.0127925 0.0 
0.0722841 -0.00618782 0.0 
1.14044 0.0990578 0.0 
1.04781 -0.0271957 0.0 
1.04941 0.0161671 0.0 
0.941295 0.00870998 0.0 
1.03362 -0.0166216 0.0 
1.03448 -0.0129463 0.0 
0.998609 0.0162884 0.0 
1.04477 -0.0320368 0.0 
0.899107 -0.0653288 0.0 
0.998888 0.0154355 0.0 
0.910001 -0.0853799 0.0 
0.397053 -0.0322272 0.0 
0.888219 -0.0835748 0.0 
0.932515 0.0161797 0.0 
1.19338 0.0329196 0.0 
1.04426 0.0183574 0.0 
0.472907 -0.0975012 0.0 
1.09305 0.0845978 0.0 
0.998407 0.0165013 0.0 
1.0193 0.221691 0.0 
0.951605 0.176532 0.0 
0.998705 0.0179917 0.0 
0.999149 0.0164076 0.0 
0.99859 0.0188032 0.0 
0.585649 -0.00406664 0.0 
0.967595 0.0252395 0.0 
0.965291 0.0227478 0.0 
0.417633 0.135802 0.0 
0.976089 0.0411063 0.0 
0.940466 -0.0440887 0.0 
0.303809 0.101769 0.0 
0.377275 0.18465 0.0 
1.06438 0.29551 0.0 
1.06928 -0.100933 0.0 
0.967054 0.0196822 0.0 
1.13177 0.0449922 0.0 
0.456342 0.00361389 0.0 
1.00051 0.0122179 0.0 
0.989984 0.0341459 0.0 
1.00924 0.0359295 0.0 
0.983432 0.0314226 0.0 
0.999442 0.0171614 0.0 
0.918664 0.0213868 0.0 
1.05888 -0.129993 0.0 
0.918932 0.0754732 0.0 
0.908762 0.131553 0.0 
1.03744 0.0144068 0.0 
1.18423 0.031227 0.0 
0.830016 0.11643 0.0 
1.05345 -0.0315127 0.0 
0.615025 0.0136046 0.0 
0.975553 0.0436559 0.0 
0.93288 -0.0500057 0.0 
0.705013 0.194342 0.0 
0.900637 0.338429 0.0 
0.986985 0.0266631 0.0 
1.06222 -0.0118375 0.0 
0.967078 0.0859977 0.0 
1.11253 -0.0733382 0.0 
1.10606 0.0590895 0.0 
0.982793 0.0330638 0.0 
0.956152 0.0122395 0.0 
1.18574 0.0365198 0.0 
0.998961 0.0235621 0.0 
1.0785 0.282373 0.0 
1.15813 0.0299469 0.0 
1.12295 -0.0741906 0.0 
0.993966 0.0104456 0.0 
1.01641 0.0475146 0.0 
0.93731 0.00759791 0.0 
0.997159 0.00875019 0.0 
1.0203 0.28303 0.0 
1.05574 -0.0201126 0.0 
1.00787 0.148619 0.0 
0.925119 -0.00643682 0.0 
1.03271 0.02686 0.0 
0.992508 0.0292184 0.0 
1.03375 0.0150863 0.0 
0.962705 0.0259158 0.0 
0.984689 0.028639 0.0 
1.03113 0.00795295 0.0 
1 0 0.0 
1.06313 -0.0043268 0.0 
0.984393 0.0302838 0.0 
1.03758 0.00101688 0.0 
0.987257 0.0284544 0.0 
1.03761 -0.0294291 0.0 
1.03845 -0.0259053 0.0 
1.19259 0.0913532 0.0 
0.984505 0.0266635 0.0 
1.1287 -0.0788117 0.0 
0.91724 -0.145382 0.0 
1.06123 1.20805e-05 0.0 
1.1281 -0.111949 0.0 
1.14064 0.0467396 0.0 
0.931252 0.0273764 0.0 
1.03788 0.00564077 0.0 
0.99577 0.0176724 0.0 
0.979335 0.0395141 0.0 
0.983871 0.011445 0.0 
0.995492 0.0107169 0.0 
0.990079 0.0215472 0.0 
1.09454 0.164829 0.0 
0.948495 0.0246715 0.0 
0.998579 0.0181606 0.0 
1.14003 0.054153 0.0 
1.15734 0.0336745 0.0 
0.998331 0.0173917 0.0 
0.943715 -0.0546869 0.0 
0.998999 0.0146466 0.0 
1.04311 -0.12693 0.0 
0.99485 0.018266 0.0 
1.00027 0.0113783 0.0 
0.98043 0.0286801 0.0 
0.98851 0.0287099 0.0 
0.996364 0.0219082 0.0 
0.99157 0.0305901 0.0 
0.882551 -0.105358 0.0 
1 0 0.0 
1 0 0.0 
1.02801 0.0475589 0.0 
0.994984 0.0245701 0.0 
0.396119 0.0108625 0.0 
0.18962 0.00588075 0.0 
1.11759 0.214348 0.0 
0.975309 -0.040915 0.0 
1.19831 0.0660714 0.0 
1.13898 0.0582931 0.0 
0.994269 0.018976 0.0 
1.13651 0.0664772 0.0 
0.991569 0.0250387 0.0 
0.948871 -0.16381 0.0 
1 0 0.0 
1.14858 0.0290005 0.0 
0.961948 0.189038 0.0 
0.99253 0.0235566 0.0 
1.14378 -0.0815413 0.0 
1.04331 0.0131662 0.0 
1.04461 0.0146451 0.0 
0.982532 0.0293619 0.0 
0.995249 0.0117084 0.0 
1.12994 0.229714 0.0 
1.11523 0.0874035 0.0 
0.994006 0.0200364 0.0 
0.291938 0.00592058 0.0 
0.958353 0.00136321 0.0 
0.991963 0.0125039 0.0 
0.995174 0.0124289 0.0 
0.441821 0.00247854 0.0 
0.985256 0.0235883 0.0 
0.948951 -0.0290059 0.0 
0.953437 -0.00661981 0.0 
0.0837188 -0.00157662 0.0 
1 0 0.0 
1.04728 0 0.0 
1.00778 0.164935 0.0 
1.11987 -0.143796 0.0 
0.93201 0.0358232 0.0 
1.11317 -0.127969 0.0 
0.426657 0.00500231 0.0 
0.114709 0.00775186 0.0 
0.989479 0.0132309 0.0 
0.985405 0.0221013 0.0 
0.987244 0.0163814 0.0 
0.991508 0.0146816 0.0 
1.1117 -0.171813 0.0 
1.06313 -0.00877044 0.0 
1.07908 0.144699 0.0 
1.1177 0.0802113 0.0 
0.378199 0.0126396 0.0 
0.956655 0.0789179 0.0 
1.00035 0.0208059 0.0 
1.11258 0.255089 0.0 
0.972244 0.0326389 0.0 
1.06247 -0.0124571 0.0 
0.959275 0.0378966 0.0 
1.06122 -0.00500795 0.0 
0.560745 -0.00404349 0.0 
0.115799 0.00727323 0.0 
0.147429 0.0468849 0.0 
0.425512 0.00794088 0.0 
0.999735 0.012792 0.0 
0.0674314 -0.00023231 0.0 
1.05937 -0.000984145 0.0 
1.1717 -0.0361176 0.0 
1.06348 -0.00350478 0.0 
1 0 0.0 
0.999557 0.0164764 0.0 
1.06226 0.00178945 0.0 
0.978793 0.0322375 0.0 
0.105894 0.00270011 0.0 
1.05861 0.0055356 0.0 
0.1406 0.00331872 0.0 
1.05603 0.0123643 0.0 
0.920357 0.0280372 0.0 
1.03412 0.00273379 0.0 
0.95732 0.0581798 0.0 
0.99971 0.0217852 0.0 
1.19415 -0.106284 0.0 
0.726034 -0.0131414 0.0 
1.04138 -0.0295173 0.0 
1.04374 -0.0344006 0.0 
1.08175 -0.039148 0.0 
1.04408 0.010572 0.0 
1.06263 -0.0107375 0.0 
1.17618 0.0111114 0.0 
1.03376 0.0130274 0.0 
1.2172 0.088803 0.0 
1.0335 0.0241353 0.0 
0.999755 0.0175339 0.0 
1.14429 0.0998179 0.0 
1.06069 -0.0173929 0.0 
0.989212 -0.0408265 0.0 
0.947753 0.0739127 0.0 
0.944217 0.0373411 0.0 
1.01392 0.0434593 0.0 
1.12291 -0.00347433 0.0 
0.928914 0.0326838 0.0 
1.01807 -2.80399e-05 0.0 
1.04058 0 0.0 
1.05827 -0.00103602 0.0 
0.933855 0.0543148 0.0 
1.13937 -0.161523 0.0 
0.935818 0.159902 0.0 
1.10576 -0.193597 0.0 
0.952942 -0.0197564 0.0 
1.08848 0.24904 0.0 
0.983015 0.0276727 0.0 
1.08547 0.102469 0.0 
0.802964 0.0991002 0.0 
1.17431 0.0991239 0.0 
0.538446 -0.00164515 0.0 
1.08068 0.183601 0.0 
1.00381 0.0219216 0.0 
1.05543 0.0148628 0.0 
1.04103 0.00807594 0.0 
1.05031 -0.000595575 0.0 
1.04767 0.000307189 0.0 
0.19003 0.0352146 0.0 
1.03919 0.00173888 0.0 
0.125185 0.0112805 0.0 
1.16728 -0.0731 0.0 
1.00371 0.0357289 0.0 
1.04374 0.0087229 0.0 
1 0 0.0 
0.983011 0.0265084 0.0 
1.19267 0.087032 0.0 
0.868858 -0.0586561 0.0 
0.999414 0.0159079 0.0 
0.991396 0.0393372 0.0 
1.05182 0.00993234 0.0 
1.0557 0.00561078 0.0 
0.940112 0.188468 0.0 
0.790009 0.129162 0.0 
1.00401 0.0189817 0.0 
1.14593 0.115737 0.0 
1.00037 0.24232 0.0 
0.998945 0.0124728 0.0 
0.986052 0.0292739 0.0 
1.05377 0.00158283 0.0 
0.93794 0.124291 0.0 
0.338103 -0.0171194 0.0 
1.05277 0.00356577 0.0 
0.176646 0.099812 0.0 
1.05317 -0.000400424 0.0 
1.09496 -0.0207718 0.0 
1.0147 0.0486594 0.0 
1.19322 -0.0921051 0.0 
1.04912 0.0023986 0.0 
0.95694 -0.00602002 0.0 
0.396979 0.00673928 0.0 
1.06004 -0.0209736 0.0 
0.946526 -0.00123111 0.0 
0.999616 0.0156059 0.0 
1.05756 -0.0256491 0.0 
0.941812 0.0656598 0.0 
1.19379 -0.0384883 0.0 
0.456896 -0.0639485 0.0 
0.671792 -0.0137904 0.0 
0.941072 -0.00439946 0.0 
0.965174 0.271627 0.0 
0.254877 0.0478136 0.0 
0.997856 0.315197 0.0 
1.00793 -0.00954437 0.0 
1.0768 -0.0394402 0.0 
0.744448 -0.00462618 0.0 
0.360408 0.116581 0.0 
1.09811 0.0673726 0.0 
0.998566 0.0125541 0.0 
0.592728 -0.00686195 0.0 
0.310568 0.00281579 0.0 
0.915117 -0.0431886 0.0 
0.829185 -0.0298724 0.0 
1.02712 0.0404487 0.0 
0.998676 0.0121152 0.0 
1.02641 -0.09675 0.0 
1.12894 -0.0272198 0.0 
1.1631 0.0173788 0.0 
0.122794 0.00663497 0.0 
0.936566 -0.0572842 0.0 
1.03309 0.0342854 0.0 
1.06223 -0.00628664 0.0 
0.938115 -0.00877093 0.0 
0.19141 0.00755388 0.0 
0.99868 0.0130633 0.0 
1.16276 0.0214851 0.0 
1.0571 -0.0251526 0.0 
0.964155 0.215359 0.0 
1.04781 0.00806884 0.0 
1.06285 0.001732 0.0 
1.06245 0.00628774 0.0 
0.954526 0.0376495 0.0 
1.0586 -0.0229501 0.0 
0.998789 0.0142741 0.0 
0.952192 0.00722973 0.0 
1.15239 -0.0257583 0.0 
1.04771 0.0218971 0.0 
0.989237 0.00756363 0.0 
0.953399 0.0154695 0.0 
0.998823 0.0144689 0.0 
1.05321 0.00735303 0.0 
1.04122 -0.00207411 0.0 
1.05899 -0.0203335 0.0 
0.990401 0.00922251 0.0 
1.01796 0.0398079 0.0 
0.998813 0.013657 0.0 
1.04902 -0.025141 0.0 
1.05795 0.0197319 0.0 
0.125426 0.0486745 0.0 
0.078466 0.0199073 0.0 
1.06151 0.0156056 0.0 
0.905946 -0.0562311 0.0 
0.905975 -0.0447715 0.0 
0.89084 0.11759 0.0 
0.999243 0.0144435 0.0 
0.998736 0.0143658 0.0 
0.962683 -0.0130123 0.0 
0.964918 -0.00178567 0.0 
1.03333 0.0202856 0.0 
0.964227 0.234231 0.0 
1.06675 0.150304 0.0 
1.02676 -0.0445286 0.0 
0.131232 0.0205371 0.0 
1.15147 0.0187837 0.0 
1.07404 0.132171 0.0 
0.998609 0.0138629 0.0 
1.0145 0.0310798 0.0 
1.10281 -0.00800838 0.0 
0.982848 0.0211521 0.0 
0.934521 0.0464783 0.0 
1.03491 -0.0273778 0.0 
0.973362 0.0375122 0.0 
0.941243 0.108764 0.0 
0.934194 0.0589511 0.0 
0.900025 -0.053278 0.0 
0.962843 0.00729449 0.0 
0.805284 -0.0462401 0.0 
1.0008 0.0187376 0.0 
1.028 0.0440042 0.0 
0.953722 -0.00998719 0.0 
0.961499 -0.000834746 0.0 
0.922668 0.0342873 0.0 
1.10299 0.247273 0.0 
0.972315 0.00627678 0.0 
0.944574 0.291212 0.0 
0.945414 0.0328884 0.0 
0.975635 0.22569 0.0 
0.851973 0.285626 0.0 
0.995125 0.0077789 0.0 
1.00247 0 0.0 
0.998751 0.0124886 0.0 
0.97725 0.00175811 0.0 
0.901705 0.152269 0.0 
0.140157 0.00707624 0.0 
1.01001 0.0445241 0.0 
0.980766 0.00737106 0.0 
0.999348 0.0128893 0.0 
0.916323 -0.0716164 0.0 
0.916696 0.0330792 0.0 
1.20761 -0.0260684 0.0 
0.998611 0.0127779 0.0 
1.00063 0.0884314 0.0 
0.912786 -0.123456 0.0 
1.03595 -0.0222429 0.0 
0.936249 0.0636653 0.0 
0.99514 0.0166001 0.0 
0.944445 0.0276635 0.0 
0.990894 0.0204147 0.0 
0.10462 0.0153506 0.0 
0.896763 -0.107678 0.0 
1.03495 -0.00650622 0.0 
1.12767 0.0836131 0.0 
1.19065 -0.049746 0.0 
0.997657 0.0110054 0.0 
0.982016 0.0188989 0.0 
1.00856 0.200524 0.0 
1.11399 0.155 0.0 
0.591967 0.0948733 0.0 
0.951407 0.188598 0.0 
0.981398 0.0192606 0.0 
0.493654 -0.0594858 0.0 
0.98236 0.0221988 0.0 
0.997207 0.0131032 0.0 
1.00015 0.0201614 0.0 
0.436095 -0.0288807 0.0 
0.380275 -0.0199303 0.0 
0.981484 0.0304556 0.0 
0.344721 0.0579319 0.0 
1.19084 0.0826591 0.0 
1.00928 0.0439476 0.0 
0.980627 0.0327059 0.0 
0.999525 0.0200404 0.0 
0.977929 0.011444 0.0 
0.93036 0.0686952 0.0 
0.976608 0.0259325 0.0 
0.852651 0.284902 0.0 
0.632797 -0.0349206 0.0 
0.40439 -0.0398278 0.0 
0.968192 0.0137023 0.0 
0.9748 0.0123427 0.0 
1.05468 0.203329 0.0 
0.500594 -0.0350839 0.0 
0.93988 0.0211388 0.0 
1.03819 -0.0360412 0.0 
0.983581 0.24509 0.0 
0.999099 0.0140726 0.0 
0.92263 0.0817619 0.0 
0.972173 0.0312713 0.0 
0.930306 0.143003 0.0 
0.966417 0.154371 0.0 
1.00949 0.254345 0.0 
0.781698 -0.0322427 0.0 
0.937647 -0.0520398 0.0 
1.09925 0.0606059 0.0 
0.474885 0.0934344 0.0 
0.926844 -0.0593798 0.0 
0.265081 0.0329685 0.0 
0.899422 -0.0126998 0.0 
0.756583 0.135159 0.0 
0.915646 -0.0661813 0.0 
0.922679 -0.0558878 0.0 
0.619575 0.165114 0.0 
1.04839 0.00706472 0.0 
0.941133 0.172978 0.0 
0.879994 -0.00478354 0.0 
0.928761 -0.0534546 0.0 
1.03418 -0.00798802 0.0 
0.346237 0.0414853 0.0 
1.03381 -0.0100097 0.0 
0.866352 0.00751432 0.0 
0.901501 0.216719 0.0 
1.03915 -9.91728e-05 0.0 
0.907277 -0.0878393 0.0 
0.927078 0.181659 0.0 
0.485823 -0.0441097 0.0 
1.11189 0.0639223 0.0 
1.0399 0.167916 0.0 
0.832876 0.380741 0.0 
1.10197 0.162608 0.0 
1.06622 0.258493 0.0 
1.04747 -0.0644308 0.0 
0.897671 -0.14572 0.0 
0.977714 0.0335097 0.0 
0.535675 0.0611152 0.0 
0.918958 -0.052403 0.0 
1.03421 0.0629768 0.0 
0.334821 0.0186689 0.0 
1.04462 0.262586 0.0 
1.04848 0.0381923 0.0 
0.879226 0.105199 0.0 
1.00489 0.0224467 0.0 
0.892914 0.0669538 0.0 
0.28799 0.0251135 0.0 
0.853536 0.0763894 0.0 
0.949443 0.036993 0.0 
0.947289 0.00408901 0.0 
1.17074 -0.0321589 0.0 
0.764891 0.335177 0.0 
0.847907 0.0890871 0.0 
1.02664 0.0728637 0.0 
1.08219 -0.0932482 0.0 
0.921621 -0.0466397 0.0 
1.04183 0.270844 0.0 
0.964721 0.0170827 0.0 
0.995241 0.0407875 0.0 
0.910385 0.0769904 0.0 
0.924702 0.112482 0.0 
0.910777 0.0355137 0.0 
1.00892 0.0283409 0.0 
0.919945 0.105826 0.0 
0.917833 0.220459 0.0 
0.999036 0.0131447 0.0 
1.09138 -0.0679832 0.0 
0.504945 -0.0570048 0.0 
1.05621 0.249775 0.0 
0.96647 0.202447 0.0 
0.807446 0.151159 0.0 
0.827291 0.0382505 0.0 
0.886446 0.0299269 0.0 
1.04313 0.304414 0.0 
0.999404 0.0178646 0.0 
1.12411 0.136859 0.0 
1.03357 0.225357 0.0 
0.887104 -0.0481595 0.0 
0.923007 -0.00172604 0.0 
0.858701 0.158249 0.0 
0.911036 0.0207855 0.0 
0.885354 0.0149706 0.0 
0.932797 -0.0457791 0.0 
0.934525 0.206814 0.0 
0.99535 0.0308793 0.0 
0.999398 0.0153663 0.0 
0.25743 0.0305682 0.0 
0.234185 0.0330945 0.0 
0.912994 0.0278804 0.0 
0.52996 0.153813 0.0 
1.03389 -0.00900756 0.0 
0.922111 -0.0161615 0.0 
0.977944 -0.000729174 0.0 
0.90276 0.0764615 0.0 
0.842265 0.00683629 0.0 
1.08112 -0.0644385 0.0 
0.955019 0.0081892 0.0 
0.975503 0.00935364 0.0 
1.08511 0.266461 0.0 
0.415153 -0.0173088 0.0 
0.93129 0.299846 0.0 
0.972959 0.00288028 0.0 
0.988278 0.0544326 0.0 
1.06929 -0.228249 0.0 
0.968935 0.00491466 0.0 
0.961692 0.0127682 0.0 
0.997617 0.0136688 0.0 
1.03464 -0.00949717 0.0 
0.808438 0.106731 0.0 
0.904569 0.0185224 0.0 
0.990924 0.005724 0.0 
1.02901 -0.181614 0.0 
0.995025 0.0158658 0.0 
0.935514 0.0242639 0.0 
0.816756 0.167547 0.0 
0.949934 -0.00824052 0.0 
0.998071 0.0104788 0.0 
0.93873 0.00492474 0.0 
0.190113 0.128586 0.0 
0.943842 -0.00814421 0.0 
1.06045 -0.00741446 0.0 
0.954584 0.288178 0.0 
0.184087 0.022626 0.0 
1.10237 0.253539 0.0 
0.988014 0.0151603 0.0 
1.08359 -0.189181 0.0 
0.968817 0.00207998 0.0 
0.959593 0.00935914 0.0 
0.959826 0.00476495 0.0 
0.546368 0.135079 0.0 
0.961854 0.00208779 0.0 
0.955913 -0.013318 0.0 
0.656256 0.184178 0.0 
1.03186 -0.0133157 0.0 
1.03117 0.0465301 0.0 
0.999484 0.26511 0.0 
0.980832 0.0211775 0.0 
0.975217 0.0293429 0.0 
0.964634 0.00416671 0.0 
0.893629 0.0130444 0.0 
0.958847 -0.0176163 0.0 
0.128047 -0.00476669 0.0 
0.968667 1.33268e-05 0.0 
1.05328 0.018388 0.0 
0.876558 0.167772 0.0 
0.996402 0.0124191 0.0 
1.05704 0.0264265 0.0 
1.05557 0.093941 0.0 
1.1018 -0.0679374 0.0 
1.09461 0.102855 0.0 
0.976493 -0.0027006 0.0 
0.87725 0.182701 0.0 
0.996509 0.0148865 0.0 
0.996876 0.0114878 0.0 
0.890613 -0.0410346 0.0 
0.978478 0.0261324 0.0 
1.16457 -0.225648 0.0 
0.725162 0.00167516 0.0 
0.942071 0.0416496 0.0 
1.01835 0.301889 0.0 
0.909952 0.352863 0.0 
0.839438 0.131939 0.0 
1.15582 0.0693797 0.0 
0.154938 0.134343 0.0 
1.02013 0.288762 0.0 
1.06834 0.264624 0.0 
1.03499 -0.00674612 0.0 
0.938914 0.0940524 0.0 
0.0622154 0.0167349 0.0 
1.17649 0.142658 0.0 
0.977535 0.0322135 0.0 
0.910233 0.121798 0.0 
1.12885 0.217549 0.0 
0.851774 0.124129 0.0 
-0.0282336 -0.0289719 0.0 
0.978639 0.0303572 0.0 
0.925236 0.0735491 0.0 
0.752661 0.139759 0.0 
0.979498 0.0271081 0.0 
0.912076 0.149786 0.0 
0.995771 0.0129102 0.0 
0.903347 0.101297 0.0 
0.978988 0.0282734 0.0 
0.85425 0.0556053 0.0 
0.831485 0.0225453 0.0 
0.904597 0.163842 0.0 
0.99868 0.011779 0.0 
0.968855 -0.00446388 0.0 
0.979971 0.0254525 0.0 
0.998939 0.0181202 0.0 
0.962697 -0.00449994 0.0 
0.961642 -0.00817567 0.0 
0.966154 -0.00395497 0.0 
0.938765 -0.0411386 0.0 
0.925998 0.0581066 0.0 
0.926623 0.0879576 0.0 
1.03536 -0.0018384 0.0 
0.989445 0.0325027 0.0 
1.05545 0.0279168 0.0 
0.999038 0.0150123 0.0 
1.07283 -0.00229895 0.0 
1.0042 0.079822 0.0 
0.949731 0.013478 0.0 
0.976716 0.0274263 0.0 
1.05048 -0.159791 0.0 
1.10396 0.241236 0.0 
1.12557 0.229243 0.0 
0.934044 -0.0319468 0.0 
0.998935 0.0145311 0.0 
0.951216 0.0111411 0.0 
0.996257 0.0140209 0.0 
0.979547 0.00564506 0.0 
1.04972 0.012662 0.0 
1.04947 -0.170526 0.0 
0.168348 0.0011878 0.0 
0.673368 0.13633 0.0 