<VTKFile type="UnstructuredGrid" version="0.1" byte_order="LittleEndian">
  <UnstructuredGrid>
    <Piece NumberOfPoints="9712" NumberOfCells="19403">
      <Points>
        <DataArray type = "Float64" NumberOfComponents="3" format="ascii">
-5 -7 0.0 
15.5 -7 0.0 
15.5 7 0.0 
-5 7 0.0 
-1.6546 1.77742 0.0 
-2.13867 1.86504 0.0 
-1.83467 1.79143 0.0 
1.47969 -2.21179 0.0 
1.36003 -2.38618 0.0 
1.4346 -2.45048 0.0 
-2.04214 1.94165 0.0 
-0.20425 1.17338 0.0 
-2.07648 1.81911 0.0 
-2.00827 1.89081 0.0 
-2.05492 1.98872 0.0 
0.192693 0.536219 0.0 
0.154285 1.75648 0.0 
1.1379 -1.62057 0.0 
-2.11226 1.96977 0.0 
-1.74119 1.75327 0.0 
1.14499 -1.58184 0.0 
-1.94373 2.37229 0.0 
1.50619 -0.664239 0.0 
1.99658 -1.76705 0.0 
1.7229 -1.18344 0.0 
-1.97759 2.52091 0.0 
-0.768046 0.387136 0.0 
1.32657 -1.43969 0.0 
1.90142 0.24821 0.0 
-0.93264 1.51038 0.0 
1.09557 0.967223 0.0 
0.627111 0.757352 0.0 
-2.05707 2.31394 0.0 
1.34027 -2.45136 0.0 
-0.725097 0.397516 0.0 
-0.666094 2.30428 0.0 
-0.73829 -0.279965 0.0 
1.73336 -1.08822 0.0 
1.88466 -1.24421 0.0 
1.50539 -1.23752 0.0 
1.65978 -1.30759 0.0 
-0.0409718 0.542603 0.0 
1.6005 -1.1227 0.0 
1.78439 -0.941488 0.0 
1.86015 -1.54236 0.0 
1.49308 -1.40058 0.0 
2.34892 -1.47149 0.0 
2.13832 -1.3246 0.0 
1.73061 0.751302 0.0 
-0.580328 0.526903 0.0 
1.51013 -2.1595 0.0 
-1.65424 3.45779 0.0 
-1.51397 2.46352 0.0 
1.42773 -2.17867 0.0 
0.304353 0.497878 0.0 
2.24628 0.228293 0.0 
1.51258 -2.27933 0.0 
-1.60346 3.44299 0.0 
-1.71408 2.36227 0.0 
2.17421 0.530405 0.0 
2.42 0.316451 0.0 
-1.63642 3.31911 0.0 
2.53942 -0.995036 0.0 
0.750003 0.810439 0.0 
2.04736 0.40918 0.0 
1.19615 -1.50641 0.0 
2.13474 0.494063 0.0 
0.547924 0.306722 0.0 
-0.2059 0.361394 0.0 
2.2127 0.547693 0.0 
1.41442 -0.597105 0.0 
1.52233 -1.46252 0.0 
-1.84114 2.53924 0.0 
-5 -2.53894 0.0 
2.32127 0.371156 0.0 
-1.69186 3.33379 0.0 
-0.964779 0.566136 0.0 
-1.81311 2.48387 0.0 
-1.78557 3.38304 0.0 
1.48278 0.914136 0.0 
2.51531 -1.89689 0.0 
1.20982 -0.330514 0.0 
0.408434 0.319657 0.0 
0.95023 0.60993 0.0 
-0.752349 0.440796 0.0 
-0.998248 0.564019 0.0 
-1.73165 3.36299 0.0 
1.24353 -1.49063 0.0 
0.942095 0.817189 0.0 
-1.77816 2.47096 0.0 
2.48183 -1.95479 0.0 
1.33574 -1.77854 0.0 
0.823335 1.12085 0.0 
-0.36308 0.598468 0.0 
0.745466 0.783414 0.0 
-1.88344 2.8521 0.0 
-1.79794 3.52221 0.0 
3.0087 0.272815 0.0 
-1.81486 2.66014 0.0 
0.375911 -0.403668 0.0 
-0.68323 0.487288 0.0 
-0.34187 -0.274923 0.0 
-0.293875 -0.201368 0.0 
1.61018 -1.767 0.0 
-0.448275 -0.347267 0.0 
-1.08687 0.352015 0.0 
1.29257 -1.76345 0.0 
1.67658 -1.49551 0.0 
1.19193 0.533009 0.0 
1.21582 -1.91654 0.0 
-0.36438 -0.346225 0.0 
-0.92534 0.330346 0.0 
2.3836 0.287756 0.0 
1.68841 0.639887 0.0 
1.59001 -1.89458 0.0 
1.14818 -1.92143 0.0 
1.28996 -2.19426 0.0 
1.37603 -1.8763 0.0 
1.23834 -2.09141 0.0 
1.11702 -2.06287 0.0 
0.691829 0.463808 0.0 
1.46523 -2.03459 0.0 
-0.123547 0.424486 0.0 
-1.3311 2.12174 0.0 
1.08169 -1.90074 0.0 
1.87975 -2.15971 0.0 
1.10131 -1.78593 0.0 
1.13722 0.534683 0.0 
1.42465 -1.59031 0.0 
-1.45435 2.47344 0.0 
1.41998 -1.98207 0.0 
0.463917 1.8787 0.0 
-1.72896 2.89571 0.0 
1.12419 -1.84975 0.0 
1.59054 -1.20634 0.0 
0.46124 0.621002 0.0 
0.806438 -1.00204 0.0 
2.1804 0.349761 0.0 
2.21142 -1.6418 0.0 
1.10152 -0.274558 0.0 
2.23388 0.387302 0.0 
0.137769 0.567007 0.0 
1.88736 0.267391 0.0 
1.26821 -1.94267 0.0 
0.21033 -0.605707 0.0 
2.61094 -1.50046 0.0 
0.819837 0.743337 0.0 
-1.4303 2.07799 0.0 
1.82013 0.322126 0.0 
-1.47649 2.2099 0.0 
1.15745 -0.274223 0.0 
-1.81198 2.24994 0.0 
2.34337 -1.67775 0.0 
-1.13329 1.37877 0.0 
-0.828215 1.05292 0.0 
2.46752 -1.53452 0.0 
-1.69915 2.18529 0.0 
-0.404416 -0.286271 0.0 
-1.23501 1.31766 0.0 
2.11757 -1.50659 0.0 
-1.08535 1.28274 0.0 
2.58548 -1.70783 0.0 
0.24729 -0.572345 0.0 
-1.66963 2.25319 0.0 
1.58322 -1.62308 0.0 
-0.367923 -0.306026 0.0 
0.391521 1.44485 0.0 
1.88977 -2.46319 0.0 
1.5943 -1.53613 0.0 
-0.357143 -0.23651 0.0 
0.82621 0.80563 0.0 
-1.59261 2.31884 0.0 
-0.47244 -0.307516 0.0 
-0.40334 -0.326688 0.0 
-2.00063 2.11543 0.0 
1.55514 -1.95078 0.0 
-1.40431 2.26352 0.0 
-0.0265928 0.573714 0.0 
1.17093 1.10579 0.0 
-1.77907 2.22111 0.0 
0.682788 0.329642 0.0 
-0.54475 2.15572 0.0 
-0.288592 0.289433 0.0 
-1.43199 2.16349 0.0 
-1.45029 2.25134 0.0 
1.5535 -1.79992 0.0 
-1.06406 1.08381 0.0 
1.72954 1.44966 0.0 
0.582806 0.515814 0.0 
0.582876 -0.679913 0.0 
1.32351 -0.355916 0.0 
-0.47505 0.577092 0.0 
-0.371167 0.227715 0.0 
1.52235 -1.8529 0.0 
-0.429822 -0.244811 0.0 
-0.53237 -0.24648 0.0 
-0.393983 -0.210364 0.0 
0.652895 0.317361 0.0 
1.55812 -1.70765 0.0 
1.63021 0.325622 0.0 
0.442731 0.358729 0.0 
1.22925 -1.85192 0.0 
1.43517 -1.79082 0.0 
1.39317 -1.6984 0.0 
1.62965 0.295952 0.0 
0.905462 0.793465 0.0 
1.04036 -1.64811 0.0 
2.1131 -1.72466 0.0 
-0.743911 0.369492 0.0 
1.14427 -1.99314 0.0 
1.26033 -2.0209 0.0 
-1.70955 2.07308 0.0 
0.910023 -1.62976 0.0 
-0.313059 -0.0954838 0.0 
-1.77334 2.3988 0.0 
-0.311958 -0.24042 0.0 
2.53315 0.325608 0.0 
-0.273728 -0.226719 0.0 
-0.646401 0.379627 0.0 
1.52426 0.616074 0.0 
2.21703 -1.79499 0.0 
2.71108 0.312216 0.0 
0.759924 1.093 0.0 
-1.69271 2.12368 0.0 
0.255794 0.540969 0.0 
0.0534699 0.562158 0.0 
-1.5679 2.22408 0.0 
-1.66906 2.45165 0.0 
-1.51895 2.09449 0.0 
2.16948 0.408238 0.0 
-0.818806 0.680638 0.0 
-0.826868 0.642087 0.0 
0.519855 0.276992 0.0 
-0.716682 1.18602 0.0 
-0.649974 -0.148775 0.0 
0.457368 0.256619 0.0 
0.517407 0.248194 0.0 
0.327129 0.39802 0.0 
0.533249 -0.878832 0.0 
-0.870735 0.634904 0.0 
1.19219 1.07557 0.0 
2.35922 0.366028 0.0 
-1.66911 3.66723 0.0 
-0.857603 1.54934 0.0 
-0.379189 2.30131 0.0 
-0.941007 1.36523 0.0 
-1.58662 2.49682 0.0 
-0.545297 0.352587 0.0 
0.327944 -0.744683 0.0 
-0.312756 0.524741 0.0 
-0.107843 0.506233 0.0 
2.13378 -2.36584 0.0 
1.52689 0.686953 0.0 
-0.119983 0.327909 0.0 
1.02161 -1.53072 0.0 
1.51507 0.39695 0.0 
-0.674484 1.02605 0.0 
-0.564724 -0.148435 0.0 
0.409388 0.290913 0.0 
0.252349 0.30842 0.0 
-1.09282 1.45998 0.0 
1.45674 -1.54484 0.0 
-0.266777 0.782169 0.0 
0.91327 -0.874389 0.0 
1.01208 1.13309 0.0 
-0.897136 1.35063 0.0 
-0.846484 0.489353 0.0 
1.47563 0.663768 0.0 
-1.22282 2.05021 0.0 
0.348906 0.416714 0.0 
1.41913 0.964648 0.0 
0.933289 -0.839038 0.0 
-1.85066 1.40221 0.0 
0.142477 1.99435 0.0 
-0.717809 0.341194 0.0 
-2.21177 1.41584 0.0 
0.396571 0.350929 0.0 
1.25171 -1.60721 0.0 
0.736798 0.393502 0.0 
-0.661427 0.19031 0.0 
2.18751 -2.32769 0.0 
-1.00908 1.6747 0.0 
2.21416 -2.07269 0.0 
-0.779194 0.642011 0.0 
-1.02312 1.3939 0.0 
2.08809 -2.24876 0.0 
-5 -4.48794 0.0 
1.61792 -1.46215 0.0 
-0.974627 1.38947 0.0 
1.81166 -2.48446 0.0 
-1.03635 1.47474 0.0 
0.869004 -1.74424 0.0 
0.956579 -1.78598 0.0 
1.07495 0.540689 0.0 
-1.08005 1.37763 0.0 
0.914755 -0.803058 0.0 
0.611759 -0.305322 0.0 
1.70043 -1.41356 0.0 
0.75708 -0.631542 0.0 
1.21215 1.01979 0.0 
-0.586902 0.440014 0.0 
1.9251 -2.56336 0.0 
-1.58261 1.91091 0.0 
-0.746541 1.26087 0.0 
-1.49915 1.13657 0.0 
-1.46675 0.971536 0.0 
-1.05881 0.930935 0.0 
0.71826 0.415078 0.0 
-0.701697 0.526982 0.0 
-1.56194 2.05157 0.0 
1.15988 0.991244 0.0 
1.38676 0.949615 0.0 
-1.61697 2.02689 0.0 
1.13748 -0.357331 0.0 
-1.8456 2.04561 0.0 
0.253686 -0.756334 0.0 
-1.53603 1.86509 0.0 
-1.43465 0.924137 0.0 
-1.00273 1.27416 0.0 
-1.03063 1.5132 0.0 
-1.32483 1.94769 0.0 
-0.965552 1.61445 0.0 
-0.239859 -0.245939 0.0 
-5 3.01776 0.0 
-5 -0.248741 0.0 
0.517491 1.87079 0.0 
-1.18776 1.8875 0.0 
2.27458 0.36201 0.0 
1.9794 0.331487 0.0 
0.503086 0.510306 0.0 
1.26387 -0.370702 0.0 
1.24483 0.550197 0.0 
1.12871 0.979556 0.0 
-1.48659 1.83259 0.0 
1.0672 0.958366 0.0 
-1.16856 1.61214 0.0 
-0.218637 -0.230696 0.0 
-5 1.81431 0.0 
1.37014 1.04658 0.0 
0.0950623 0.557621 0.0 
-1.23613 1.67303 0.0 
0.953731 -0.709843 0.0 
2.07568 -1.85385 0.0 
2.10836 -1.82014 0.0 
-0.994952 1.33552 0.0 
-1.86986 1.52312 0.0 
0.515812 0.447542 0.0 
0.842446 0.992035 0.0 
-1.42353 1.8223 0.0 
2.091 0.354014 0.0 
-0.937663 0.401428 0.0 
-1.69305 1.41997 0.0 
-1.82465 1.55127 0.0 
2.15192 0.384657 0.0 
-1.17972 1.37998 0.0 
-0.718866 -0.0130647 0.0 
-0.927867 0.290435 0.0 
1.56509 0.300406 0.0 
-5 -3.04052 0.0 
9.98027 -7 0.0 
0.176009 0.694641 0.0 
0.597997 -0.559941 0.0 
-0.546583 0.4849 0.0 
0.602022 -0.657834 0.0 
2.17737 0.379672 0.0 
1.89809 0.287017 0.0 
-1.58883 1.35796 0.0 
-1.2284 1.37063 0.0 
-1.43937 1.35342 0.0 
-1.59664 1.47263 0.0 
0.577431 -0.368705 0.0 
1.5263 -1.51093 0.0 
0.479666 0.796509 0.0 
0.894995 1.01463 0.0 
2.22312 0.363016 0.0 
-0.320562 0.726481 0.0 
-1.30188 2.41386 0.0 
0.43802 0.434693 0.0 
-0.761697 0.762024 0.0 
1.45688 -1.49591 0.0 
-0.65072 0.676835 0.0 
1.6097 -1.41509 0.0 
2.25768 0.399237 0.0 
1.85518 0.299709 0.0 
2.14618 0.290757 0.0 
2.25222 0.371677 0.0 
-1.93063 2.91367 0.0 
1.52717 0.319618 0.0 
1.67964 -1.62237 0.0 
1.35962 -0.439169 0.0 
1.63007 -1.54335 0.0 
-5 -0.764504 0.0 
-1.61377 2.62271 0.0 
1.73865 -1.57725 0.0 
-0.908306 1.23669 0.0 
1.60766 0.330292 0.0 
1.82509 -1.63054 0.0 
1.90521 0.312457 0.0 
1.98719 -1.6488 0.0 
-0.528791 0.39225 0.0 
1.94978 -2.39003 0.0 
-0.472559 0.718465 0.0 
-1.28058 2.26572 0.0 
0.881581 -0.556282 0.0 
2.26369 0.42542 0.0 
0.917309 -1.69962 0.0 
0.853954 -1.60945 0.0 
1.30086 -0.404316 0.0 
1.99565 -2.46852 0.0 
1.49445 -1.47573 0.0 
1.68285 0.863315 0.0 
2.03074 -2.37549 0.0 
2.52279 -0.506167 0.0 
2.56049 -1.76899 0.0 
-1.52889 2.56597 0.0 
2.81136 -0.570221 0.0 
1.3688 -1.46095 0.0 
1.29524 -0.373946 0.0 
-0.350504 0.671928 0.0 
-0.590282 0.564035 0.0 
-0.054366 2.16706 0.0 
1.50819 1.22548 0.0 
-0.548222 0.453941 0.0 
2.19936 -2.5207 0.0 
12.2704 -7 0.0 
1.6811 -1.36761 0.0 
-0.449261 0.559535 0.0 
0.537017 -0.527614 0.0 
-0.00733391 0.553304 0.0 
0.494109 -0.356396 0.0 
-0.7939 0.0827441 0.0 
0.39888 0.467333 0.0 
-1.04288 1.34095 0.0 
0.605019 1.02824 0.0 
0.847559 0.374727 0.0 
1.00336 0.618307 0.0 
2.1955 0.399186 0.0 
0.656973 0.401158 0.0 
-0.998431 2.73564 0.0 
[...]
<PointData>
  <DataArray type = "Float64" Name="VitesseP1" NumberOfComponents="3" format="ascii">
1 0 0.0 
1.09068 0 0.0 
1.03383 0 0.0 
1 0 0.0 
0.994534 0.016186 0.0 
0.996862 0.0114357 0.0 
0.995426 0.0139609 0.0 
1.04144 -0.00517644 0.0 
1.04314 -0.00642187 0.0 
1.04813 -0.00617727 0.0 
0.997714 0.012383 0.0 
0.986004 0.0735871 0.0 
0.996552 0.0117756 0.0 
0.996765 0.0125783 0.0 
0.998888 0.0123851 0.0 
0.990999 0.219086 0.0 
1.01963 0.0549509 0.0 
1.04973 -0.027112 0.0 
0.998811 0.0117944 0.0 
0.994956 0.0149018 0.0 
1.0548 -0.0280714 0.0 
0.998841 0.013736 0.0 
1.15869 -0.0277596 0.0 
1.04702 0.0104419 0.0 
1.06304 -0.00351224 0.0 
0.998809 0.0133085 0.0 
0.944122 0.00903398 0.0 
1.06278 -0.0232765 0.0 
0.0610924 0.00321603 0.0 
0.98859 0.0319785 0.0 
1.14209 0.0705351 0.0 
1.10876 0.14418 0.0 
0.998831 0.0127214 0.0 
1.03319 -0.0194752 0.0 
0.940944 0.0126388 0.0 
1.00546 0.0310471 0.0 
0.93634 -0.0514138 0.0 
1.08424 -0.00338729 0.0 
1.05566 0.00719236 0.0 
1.05315 -0.0170278 0.0 
1.05591 -0.00653129 0.0 
0.92596 0.152327 0.0 
1.07454 -0.0126477 0.0 
1.12605 -0.000145156 0.0 
1.06828 0.00544565 0.0 
1.06309 -0.0151639 0.0 
1.06279 0.0325972 0.0 
1.05639 0.0227496 0.0 
1.20018 0.0306594 0.0 
0.939059 0.0360903 0.0 
1.04033 -0.00512478 0.0 
1.00256 0.0126614 0.0 
0.999804 0.0179736 0.0 
1.03975 -0.00672821 0.0 
1.03619 0.244263 0.0 
0.0291757 -0.020842 0.0 
1.04299 -0.00414618 0.0 
1.00278 0.0130736 0.0 
0.99907 0.0160359 0.0 
1.15645 -0.00860393 0.0 
0.111795 -0.0356103 0.0 
1.00244 0.013347 0.0 
1.09546 0.0603044 0.0 
1.12178 0.122941 0.0 
0.539023 0.00720399 0.0 
1.06058 -0.0280456 0.0 
1.05999 -0.00563037 0.0 
0.550732 0.13453 0.0 
0.861962 0.0859058 0.0 
1.17771 -0.0131952 0.0 
1.20206 -0.0395344 0.0 
1.06675 -0.0127854 0.0 
0.999028 0.0144716 0.0 
1 0 0.0 
0.288412 -0.0422283 0.0 
1.0022 0.0129123 0.0 
0.967847 0.0109518 0.0 
0.999048 0.0148344 0.0 
1.00181 0.0120695 0.0 
1.17329 0.0389762 0.0 
1.03776 0.0207682 0.0 
0.746011 -0.0408519 0.0 
0.945402 0.263567 0.0 
1.17202 0.117929 0.0 
0.945762 0.0146003 0.0 
0.969674 0.00923903 0.0 
1.00211 0.012513 0.0 
1.06193 -0.0262936 0.0 
1.14264 0.100035 0.0 
0.999113 0.0151897 0.0 
1.04443 0.0254962 0.0 
1.04288 -0.01571 0.0 
1.09661 0.0816861 0.0 
0.934904 0.0706407 0.0 
1.12406 0.127084 0.0 
0.999888 0.0132362 0.0 
1.00225 0.0112795 0.0 
-0.0143138 -0.142932 0.0 
0.999228 0.0144039 0.0 
1.18945 -0.234804 0.0 
0.943632 0.023414 0.0 
0.918005 -0.0884023 0.0 
0.914816 -0.0744535 0.0 
1.04723 -0.00531922 0.0 
0.923623 -0.0783634 0.0 
0.966905 -0.0079134 0.0 
1.04261 -0.0176367 0.0 
1.06862 -0.00426183 0.0 
1.19427 0.0866323 0.0 
1.0377 -0.0171522 0.0 
0.919274 -0.0887077 0.0 
0.95451 -0.00338142 0.0 
0.0676382 -0.0259484 0.0 
1.20329 0.0379918 0.0 
1.04377 -0.00514104 0.0 
1.03614 -0.0189495 0.0 
1.03745 -0.00936083 0.0 
1.04164 -0.0126522 0.0 
1.03501 -0.0130772 0.0 
1.03222 -0.0179591 0.0 
1.16123 0.186163 0.0 
1.03866 -0.00761046 0.0 
0.876421 0.126539 0.0 
0.999044 0.0215068 0.0 
1.0351 -0.0214277 0.0 
1.0405 0.00392423 0.0 
1.03769 -0.0238041 0.0 
1.19398 0.0940197 0.0 
1.06104 -0.0156972 0.0 
1.00006 0.0186122 0.0 
1.0388 -0.00967373 0.0 
1.02957 0.048627 0.0 
1.00075 0.0143042 0.0 
1.03708 -0.021481 0.0 
1.05792 -0.012021 0.0 
1.08612 0.190697 0.0 
1.06729 -0.074192 0.0 
0.149945 -0.00234177 0.0 
1.0545 0.0212835 0.0 
0.453177 -0.039118 0.0 
0.40007 -0.0237953 0.0 
0.976521 0.197466 0.0 
0.0662928 -0.00283102 0.0 
1.03769 -0.0150208 0.0 
1.02932 -0.160975 0.0 
1.05026 0.0476994 0.0 
1.13824 0.123064 0.0 
0.998748 0.0200899 0.0 
0.075786 0.00645007 0.0 
0.998924 0.0191548 0.0 
0.406663 -0.017271 0.0 
0.998747 0.0151053 0.0 
1.0463 0.0257961 0.0 
0.984993 0.0251182 0.0 
0.973188 0.0349746 0.0 
1.05588 0.0368378 0.0 
0.998571 0.0163775 0.0 
0.922039 -0.079556 0.0 
0.984 0.0214884 0.0 
1.06708 0.0191711 0.0 
0.981391 0.0259746 0.0 
1.03307 0.0320677 0.0 
1.03855 -0.171446 0.0 
0.998862 0.0166755 0.0 
1.05902 -0.00781811 0.0 
0.919407 -0.0859434 0.0 
1.03389 0.0712474 0.0 
1.04605 -0.00238755 0.0 
1.06735 -0.00820066 0.0 
0.915708 -0.0816957 0.0 
1.13176 0.114912 0.0 
0.99918 0.0174753 0.0 
0.92696 -0.0727718 0.0 
0.921449 -0.082659 0.0 
0.998606 0.0131266 0.0 
1.0413 -0.00589026 0.0 
0.999427 0.0200001 0.0 
0.938033 0.152327 0.0 
1.13084 0.051867 0.0 
0.998687 0.0154694 0.0 
0.626165 0.110815 0.0 
1.0061 0.0352115 0.0 
0.862597 0.0457952 0.0 
0.998881 0.0198834 0.0 
0.999231 0.0194075 0.0 
1.04539 -0.00726302 0.0 
0.973708 0.0244292 0.0 
1.07545 -0.0424189 0.0 
1.13971 0.201574 0.0 
1.10716 -0.129682 0.0 
0.863357 -0.0313364 0.0 
0.937679 0.0524108 0.0 
0.874327 0.016702 0.0 
1.04408 -0.00790345 0.0 
0.92335 -0.0730912 0.0 
0.932551 -0.0625811 0.0 
0.918072 -0.0742094 0.0 
0.57464 0.111002 0.0 
1.05053 -0.00804311 0.0 
0.108639 0.0197008 0.0 
1.03427 0.265957 0.0 
1.03941 -0.0180499 0.0 
1.04425 -0.0118608 0.0 
1.04903 -0.0150954 0.0 
0.0883026 0.0275662 0.0 
1.14177 0.106669 0.0 
1.04398 -0.0299373 0.0 
1.04802 0.0156185 0.0 
0.940997 0.00886731 0.0 
1.03354 -0.0178524 0.0 
1.03545 -0.0137301 0.0 
0.998707 0.016255 0.0 
1.04105 -0.0350789 0.0 
0.897841 -0.065384 0.0 
0.999038 0.0153603 0.0 
0.908906 -0.0857145 0.0 
0.182567 -0.0213945 0.0 
0.887018 -0.0838825 0.0 
0.932138 0.0164163 0.0 
1.20104 0.0500812 0.0 
1.0438 0.0188144 0.0 
0.249944 -0.0108498 0.0 
1.09593 0.0892315 0.0 
0.998522 0.0164622 0.0 
1.01762 0.224133 0.0 
0.950476 0.178118 0.0 
0.998859 0.0179408 0.0 
0.999321 0.0163246 0.0 
0.998719 0.0187715 0.0 
0.543338 -0.0111799 0.0 
0.967386 0.025524 0.0 
0.965076 0.0230109 0.0 
0.410605 0.135846 0.0 
0.97617 0.0415054 0.0 
0.939662 -0.0443674 0.0 
0.298411 0.101232 0.0 
0.372932 0.184615 0.0 
1.0611 0.297796 0.0 
1.06778 -0.103623 0.0 
0.966855 0.0199117 0.0 
1.13834 0.0522527 0.0 
0.265592 -0.0441574 0.0 
1.00063 0.0119532 0.0 
0.990202 0.0343372 0.0 
1.0097 0.0356579 0.0 
0.983563 0.0316407 0.0 
0.999634 0.0170716 0.0 
0.91819 0.0216839 0.0 
1.05726 -0.132061 0.0 
0.918311 0.0762077 0.0 
0.907839 0.132609 0.0 
1.0462 0.0129255 0.0 
1.19234 0.0469715 0.0 
0.828984 0.117133 0.0 
1.05507 -0.0347176 0.0 
0.535126 0.0238099 0.0 
0.975522 0.0441216 0.0 
0.931998 -0.0502505 0.0 
0.697844 0.194695 0.0 
0.897153 0.339456 0.0 
0.987112 0.0268031 0.0 
1.06516 -0.0148179 0.0 
0.966709 0.0870095 0.0 
1.11162 -0.0776716 0.0 
1.11126 0.064731 0.0 
0.982929 0.0333064 0.0 
0.955929 0.0124144 0.0 
1.19287 0.052182 0.0 
0.999129 0.0235452 0.0 
1.07548 0.284957 0.0 
1.16644 0.0405287 0.0 
1.12197 -0.0787048 0.0 
0.994015 0.0104681 0.0 
1.01818 0.0466922 0.0 
0.936988 0.00774943 0.0 
0.997196 0.00875298 0.0 
1.01565 0.28519 0.0 
1.05487 -0.0228255 0.0 
0.993265 0.152478 0.0 
0.924615 -0.00638885 0.0 
1.03693 0.0305921 0.0 
0.992702 0.029323 0.0 
1.03709 0.0156595 0.0 
0.962469 0.0262145 0.0 
0.984813 0.0288168 0.0 
1.03679 0.00704715 0.0 
1 0 0.0 
1.06785 -0.00763234 0.0 
0.984526 0.0304818 0.0 
1.04421 -0.00190971 0.0 
0.987401 0.028609 0.0 
1.03179 -0.0321659 0.0 
1.03384 -0.0283847 0.0 
1.19142 0.103034 0.0 
0.984613 0.0268233 0.0 
1.12753 -0.0832938 0.0 
0.910764 -0.146931 0.0 
1.06613 -0.00348457 0.0 
1.12569 -0.115606 0.0 
1.14679 0.0548234 0.0 
0.930842 0.027714 0.0 
1.03663 0.00105559 0.0 
0.995879 0.0176646 0.0 
0.979465 0.0398699 0.0 
0.983907 0.011505 0.0 
0.995451 0.0107476 0.0 
0.989953 0.0217297 0.0 
1.08491 0.169865 0.0 
0.948187 0.0249719 0.0 
0.99869 0.0181343 0.0 
1.14527 0.0621898 0.0 
1.16511 0.0441455 0.0 
0.998431 0.0173671 0.0 
0.925692 -0.0578602 0.0 
0.999072 0.0146146 0.0 
1.0415 -0.128804 0.0 
0.994966 0.018267 0.0 
1.0002 0.0114063 0.0 
0.980509 0.0288878 0.0 
0.988664 0.0288569 0.0 
0.996512 0.0219081 0.0 
0.991763 0.0307246 0.0 
0.881327 -0.10568 0.0 
1 0 0.0 
1 0 0.0 
1.03149 0.0480873 0.0 
0.995164 0.0245916 0.0 
0.228333 -0.0345157 0.0 
0.0543853 0.0214582 0.0 
1.1153 0.218628 0.0 
0.953494 -0.0462289 0.0 
1.19921 0.0804333 0.0 
1.14377 0.0662217 0.0 
0.99439 0.0189849 0.0 
1.1405 0.0741473 0.0 
0.991706 0.0251271 0.0 
0.94742 -0.163996 0.0 
1 0 0.0 
1.15727 0.0379477 0.0 
0.960718 0.190762 0.0 
0.992666 0.0236207 0.0 
1.14175 -0.0862744 0.0 
1.04385 0.012773 0.0 
1.04427 0.0144207 0.0 
0.982639 0.029563 0.0 
0.9953 0.0117224 0.0 
1.12611 0.233762 0.0 
1.1177 0.0931633 0.0 
0.994137 0.0200519 0.0 
0.157314 0.0108821 0.0 
0.958192 0.00144119 0.0 
0.992021 0.0125371 0.0 
0.995227 0.0124438 0.0 
0.365332 -0.00375101 0.0 
0.98535 0.0237154 0.0 
0.94813 -0.0292042 0.0 
0.953299 -0.00661458 0.0 
0.0931946 -0.00847968 0.0 
1 0 0.0 
1.07079 0 0.0 
1.00691 0.16721 0.0 
1.11819 -0.146853 0.0 
0.931581 0.0362361 0.0 
1.111 -0.130979 0.0 
0.334885 -0.00830245 0.0 
0.0781356 0.00171903 0.0 
0.989538 0.0132779 0.0 
0.985491 0.0222156 0.0 
0.987311 0.01645 0.0 
0.991576 0.0147205 0.0 
1.10579 -0.173927 0.0 
1.067 -0.0118887 0.0 
1.07879 0.148691 0.0 
1.12073 0.0861679 0.0 
0.236123 -0.0170184 0.0 
0.956247 0.0798059 0.0 
1.00057 0.0207279 0.0 
1.10921 0.258451 0.0 
0.972038 0.0329968 0.0 
1.06616 -0.0157283 0.0 
0.958994 0.0383248 0.0 
1.06562 -0.00861899 0.0 
0.487733 -0.0306709 0.0 
0.0763399 0.00982213 0.0 
0.045998 -0.00136001 0.0 
0.296028 -0.0251188 0.0 
0.999808 0.0126599 0.0 
0.0799504 0.00280329 0.0 
1.05973 -0.00336563 0.0 
1.15523 -0.044147 0.0 
1.06737 -0.00635545 0.0 
1 0 0.0 
0.999764 0.016368 0.0 
1.06551 -0.000647354 0.0 
0.978869 0.032499 0.0 
0.0946868 0.010305 0.0 
1.05947 0.00352759 0.0 
0.074022 0.00276738 0.0 
1.05677 0.0109776 0.0 
0.91988 0.0283868 0.0 
1.04121 -0.000543782 0.0 
0.956983 0.0588327 0.0 
0.999913 0.0217292 0.0 
1.19427 -0.111212 0.0 
0.670925 -0.0318148 0.0 
1.03589 -0.032225 0.0 
1.04134 -0.0375953 0.0 
1.06352 -0.0457849 0.0 
1.05394 0.00927391 0.0 
1.06665 -0.014093 0.0 
1.18771 0.0238652 0.0 
1.04093 0.012826 0.0 
1.2474 0.0831179 0.0 
1.03485 0.0272603 0.0 
0.999966 0.0174338 0.0 
1.17888 0.111168 0.0 
1.06409 -0.0208451 0.0 
0.966151 -0.0463763 0.0 
0.947305 0.0747174 0.0 
0.943849 0.0377673 0.0 
1.0145 0.0428015 0.0 
1.13703 0.00222937 0.0 
0.928477 0.0330694 0.0 
1.00651 -0.00577564 0.0 
1.0678 0 0.0 
1.06235 -0.00482818 0.0 
0.933382 0.0548973 0.0 
1.13798 -0.164374 0.0 
0.934788 0.161285 0.0 
1.10048 -0.19527 0.0 
0.95227 -0.0199161 0.0 
1.08603 0.252294 0.0 
0.983116 0.0278528 0.0 
1.08701 0.106583 0.0 
0.77946 0.101931 0.0 
1.17469 0.109172 0.0 
0.480483 -0.0161845 0.0 
1.07157 0.187775 0.0 
1.00411 0.0218374 0.0 
1.05648 0.0137796 0.0 
1.04273 0.00719969 0.0 
1.04777 -0.00235694 0.0 
1.04619 -0.00127031 0.0 
0.0293216 0.00969951 0.0 
1.04155 0.0006409 0.0 
-0.069577 0.0210261 0.0 
1.02209 -0.0388479 0.0 
1.0041 0.0356714 0.0 
1.04446 0.00782299 0.0 
1 0 0.0 
0.983105 0.0266769 0.0 
1.19221 0.0989557 0.0 
0.725476 -0.0461499 0.0 
0.999616 0.0157976 0.0 
0.991692 0.0395824 0.0 
1.05015 0.00863785 0.0 
1.05492 0.00381575 0.0 
0.938877 0.189977 0.0 
0.772674 0.130985 0.0 
1.00436 0.0188679 0.0 
1.1475 0.137908 0.0 
0.998512 0.244439 0.0 
0.999133 0.012351 0.0 
0.985923 0.0295551 0.0 
1.05145 -0.000266306 0.0 
0.937173 0.125493 0.0 
0.167816 0.0234004 0.0 
1.05046 0.00185673 0.0 
0.171224 0.0987806 0.0 
1.05065 -0.00234529 0.0 
1.00541 -0.0262376 0.0 
1.01629 0.0481725 0.0 
1.08428 -0.0315906 0.0 
1.04716 0.000818104 0.0 
0.956815 -0.00600464 0.0 
0.324684 0.0150417 0.0 
1.06286 -0.0241641 0.0 
0.946304 -0.00117541 0.0 
0.999832 0.0154865 0.0 
1.06028 -0.0290359 0.0 
0.941351 0.0663642 0.0 
1.19685 -0.047005 0.0 
0.250699 0.00850325 0.0 
0.601755 -0.0386644 0.0 
0.94079 -0.00437419 0.0 
0.963221 0.273315 0.0 
0.248529 0.0479708 0.0 
0.995092 0.31679 0.0 
0.931029 -0.0174539 0.0 
1.0779 -0.044337 0.0 
0.69756 5.02189e-05 0.0 
0.354156 0.116203 0.0 
1.1025 0.0725314 0.0 
0.998709 0.0124594 0.0 
0.54807 0.00470203 0.0 
0.153921 0.0479297 0.0 
0.914006 -0.0432357 0.0 
0.744109 -0.0425876 0.0 
1.03097 0.0438256 0.0 
0.998775 0.0120457 0.0 
1.02512 -0.0988013 0.0 
1.10936 -0.0357646 0.0 
1.17375 0.029046 0.0 
0.0759906 0.00331892 0.0 
0.935832 -0.0576275 0.0 
1.03555 0.0411594 0.0 
1.06666 -0.00975965 0.0 
0.937752 -0.00878691 0.0 
0.0606547 0.0214762 0.0 
0.998802 0.0129892 0.0 
1.17237 0.0329573 0.0 
1.05882 -0.0282404 0.0 
0.962675 0.217126 0.0 
1.05318 0.0125914 0.0 
1.06826 -0.00148137 0.0 
1.06835 0.00329218 0.0 
0.954218 0.0380771 0.0 
1.06076 -0.0260552 0.0 
0.998933 0.0141944 0.0 
0.951971 0.00736295 0.0 
1.13323 -0.0348669 0.0 
1.05393 0.0185843 0.0 
0.989272 0.00760721 0.0 
0.953149 0.0156772 0.0 
0.998975 0.014384 0.0 
1.05739 0.00340897 0.0 
1.04098 -0.00627257 0.0 
1.06067 -0.0233256 0.0 
0.990443 0.00926168 0.0 
1.02123 0.0440508 0.0 
0.998874 0.0136266 0.0 
1.04517 -0.0277723 0.0 
1.06537 0.017532 0.0 
0.0418007 0.000235791 0.0 
0.0485182 0.0143896 0.0 
1.06876 0.0134727 0.0 
0.904794 -0.0562912 0.0 
0.883049 -0.0484239 0.0 
0.871573 0.121429 0.0 
0.999441 0.0143251 0.0 
0.998862 0.0142991 0.0 
0.962632 -0.0130169 0.0 
0.964802 -0.00173505 0.0 
1.03445 0.023606 0.0 
0.962577 0.235972 0.0 
1.0663 0.153888 0.0 
1.02923 -0.045352 0.0 
0.0543131 0.00134774 0.0 
1.16222 0.0282625 0.0 
1.09153 0.151217 0.0 
0.998713 0.0138102 0.0 
1.01551 0.0341692 0.0 
1.11485 -0.0058527 0.0 
0.982701 0.0213633 0.0 
0.934076 0.04699 0.0 
1.03081 -0.0301713 0.0 
0.97315 0.0379258 0.0 
0.940583 0.109866 0.0 
0.933709 0.0595781 0.0 
0.772976 -0.0461106 0.0 
0.96267 0.00741742 0.0 
0.783211 -0.0485521 0.0 
1.00106 0.0186229 0.0 
1.03161 0.0446287 0.0 
0.95358 -0.0100188 0.0 
0.961364 -0.000774961 0.0 
0.922192 0.0346882 0.0 
1.09844 0.250675 0.0 
0.97218 0.00637351 0.0 
0.939249 0.292554 0.0 
0.945065 0.0332707 0.0 
0.97404 0.227566 0.0 
0.846956 0.286511 0.0 
0.99516 0.0077992 0.0 
1.00118 0 0.0 
0.998816 0.0124482 0.0 
0.97715 0.00180409 0.0 
0.886843 0.154897 0.0 
0.127602 0.00920318 0.0 
1.01079 0.0442616 0.0 
0.980658 0.00745202 0.0 
0.999401 0.0128525 0.0 
0.915165 -0.0717546 0.0 
0.916187 0.0334714 0.0 
1.19187 -0.0355821 0.0 
0.998706 0.012722 0.0 
0.951322 0.0742325 0.0 
0.666401 -0.0561758 0.0 
1.03344 -0.0244123 0.0 
0.935762 0.0643396 0.0 
0.995241 0.0165955 0.0 
0.944106 0.0279958 0.0 
0.990992 0.0204807 0.0 
0.0758214 0.0138514 0.0 
0.666555 -0.0519007 0.0 
1.04271 -0.00450693 0.0 
1.15716 0.0847121 0.0 
1.12195 -0.0319185 0.0 
0.997695 0.0110047 0.0 
0.982058 0.0190071 0.0 
0.99943 0.203495 0.0 
1.11308 0.16017 0.0 
0.574984 0.0958178 0.0 
0.950171 0.19021 0.0 
0.981429 0.0193763 0.0 
0.256041 -0.0142761 0.0 
0.982422 0.022331 0.0 
0.997271 0.0130812 0.0 
1.00036 0.0200824 0.0 
0.201175 -0.0327194 0.0 
0.168857 -0.0230257 0.0 
0.981587 0.0306763 0.0 
0.331966 0.058151 0.0 
1.1913 0.0948203 0.0 
1.01001 0.0437249 0.0 
0.980735 0.0329593 0.0 
0.999716 0.0199779 0.0 
0.977798 0.0115702 0.0 
0.929821 0.069402 0.0 
0.976433 0.0262091 0.0 
0.850861 0.285788 0.0 
0.44189 -0.0503065 0.0 
0.199779 -0.0041249 0.0 
0.968016 0.0138725 0.0 
0.974655 0.0124856 0.0 
1.05312 0.206447 0.0 
0.251794 -0.0413498 0.0 
0.939539 0.0214131 0.0 
1.03399 -0.0395342 0.0 
0.981757 0.247014 0.0 
0.999287 0.0139552 0.0 
0.922002 0.0825579 0.0 
0.972168 0.0315558 0.0 
0.929382 0.144261 0.0 
0.951931 0.157674 0.0 
1.00748 0.256536 0.0 
0.681422 -0.046008 0.0 
0.936873 -0.0523404 0.0 
1.11594 0.0592404 0.0 
0.463213 0.0938622 0.0 
0.925911 -0.0596332 0.0 
0.0712601 -0.0303032 0.0 
0.898557 -0.0125792 0.0 
0.740885 0.136495 0.0 
0.914529 -0.0663395 0.0 
0.921678 -0.056085 0.0 
0.608434 0.165262 0.0 
1.04687 0.0057749 0.0 
0.940014 0.174452 0.0 
0.87913 -0.00458509 0.0 
0.927833 -0.0536879 0.0 
1.03977 -0.00694884 0.0 
0.33489 0.0415127 0.0 
1.03684 -0.0100903 0.0 
0.865509 0.00779009 0.0 
0.892382 0.217954 0.0 
1.04736 -0.00251422 0.0 
0.905975 -0.0880136 0.0 
0.915083 0.183862 0.0 
0.239441 -0.0334917 0.0 
1.12966 0.0623098 0.0 
1.02866 0.17206 0.0 
0.828579 0.381016 0.0 
1.10096 0.167258 0.0 
1.06126 0.261453 0.0 
0.904731 -0.0421933 0.0 
0.615324 -0.0633312 0.0 
0.977526 0.0338712 0.0 
0.511044 0.062178 0.0 
0.91792 -0.0525433 0.0 
1.04477 0.064723 0.0 
0.147416 -0.0274912 0.0 
1.04239 0.265138 0.0 
1.0581 0.039391 0.0 
0.878337 0.105994 0.0 
1.00518 0.0223663 0.0 
0.892203 0.0675715 0.0 
0.0854665 -0.0110822 0.0 
0.85265 0.076994 0.0 
0.949108 0.0374151 0.0 
0.947046 0.00419625 0.0 
1.17275 -0.0407572 0.0 
0.761699 0.33589 0.0 
0.846979 0.0897319 0.0 
1.02843 0.0745051 0.0 
1.08085 -0.0963642 0.0 
0.920599 -0.0467617 0.0 
1.03723 0.273269 0.0 
0.964519 0.0172909 0.0 
0.99562 0.0409969 0.0 
0.90972 0.0777139 0.0 
0.923945 0.113514 0.0 
0.91023 0.035926 0.0 
1.00916 0.0280395 0.0 
0.9192 0.106788 0.0 
0.916347 0.221797 0.0 
0.999215 0.0130264 0.0 
1.09079 -0.0720959 0.0 
0.256522 -0.0268409 0.0 
1.05048 0.252774 0.0 
0.965111 0.204239 0.0 
0.806269 0.151856 0.0 
0.826302 0.0386714 0.0 
0.885777 0.0303074 0.0 
1.04017 0.306437 0.0 
0.999589 0.0177867 0.0 
1.12372 0.142749 0.0 
1.03177 0.227989 0.0 
0.88582 -0.0480881 0.0 
0.92253 -0.00162993 0.0 
0.857541 0.159149 0.0 
0.91052 0.0210861 0.0 
0.884655 0.0152625 0.0 
0.931898 -0.045991 0.0 
0.933139 0.208285 0.0 
0.995613 0.0309361 0.0 
0.9996 0.0152517 0.0 
0.0564214 -0.0116461 0.0 
0.0449385 -0.00613323 0.0 
0.912475 0.0282334 0.0 
0.522042 0.153485 0.0 
1.03799 -0.00864866 0.0 
0.921304 -0.0161365 0.0 
0.977859 -0.000703387 0.0 
0.902062 0.0771621 0.0 
0.841267 0.00712918 0.0 
1.08078 -0.0684927 0.0 
0.954808 0.00832839 0.0 
0.975368 0.00946811 0.0 
1.08239 0.269379 0.0 
0.183152 -0.0316705 0.0 
0.929205 0.30109 0.0 
0.972841 0.00294793 0.0 
0.98867 0.055006 0.0 
1.06757 -0.229592 0.0 
0.968794 0.00500795 0.0 
0.96149 0.0129408 0.0 
0.997683 0.0136457 0.0 
1.03733 -0.00981866 0.0 
0.788005 0.109474 0.0 
0.904012 0.0188136 0.0 
0.990853 0.00574892 0.0 
1.02696 -0.183115 0.0 
0.99512 0.0158627 0.0 
0.935138 0.0245705 0.0 
0.804004 0.168678 0.0 
0.949748 -0.00825806 0.0 
0.998107 0.0104697 0.0 
0.938426 0.00504876 0.0 
0.1872 0.128407 0.0 
0.943564 -0.00816245 0.0 
1.06448 -0.0110875 0.0 
0.952535 0.289681 0.0 
0.0292509 0.00884758 0.0 
1.0995 0.256845 0.0 
0.987896 0.015294 0.0 
0.807813 -0.0855549 0.0 
0.968689 0.00215177 0.0 
0.959398 0.00950447 0.0 
0.959654 0.0048704 0.0 
0.540264 0.134558 0.0 
0.961705 0.00216979 0.0 
0.955779 -0.0133775 0.0 
0.646821 0.184264 0.0 
1.03407 -0.0135707 0.0 
1.0348 0.047229 0.0 
0.993668 0.267022 0.0 
0.980866 0.0213123 0.0 
0.975236 0.0295884 0.0 
0.964483 0.00426195 0.0 
0.892982 0.0133136 0.0 
0.958745 -0.0177052 0.0 
0.106551 0.00279422 0.0 
0.96855 7.01781e-05 0.0 
1.05927 0.0153671 0.0 
0.875379 0.16878 0.0 
0.996452 0.0124259 0.0 
1.06548 0.0258625 0.0 
1.05741 0.0971445 0.0 
1.10112 -0.0722502 0.0 
1.09612 0.107376 0.0 
0.976412 -0.00268493 0.0 
0.875986 0.183748 0.0 
0.996591 0.0148696 0.0 
0.996923 0.0114833 0.0 
0.889368 -0.0409565 0.0 
0.978511 0.0263288 0.0 
1.16254 -0.227475 0.0 
0.637237 0.0177643 0.0 
0.94168 0.0421175 0.0 
1.01573 0.303779 0.0 
0.905848 0.353832 0.0 
0.838362 0.132701 0.0 
1.15922 0.0791493 0.0 
0.153122 0.133891 0.0 
1.01585 0.290769 0.0 
1.06377 0.267326 0.0 
1.03886 -0.00700305 0.0 
0.93832 0.0950147 0.0 
0.0411174 0.0093251 0.0 
1.17458 0.150434 0.0 
0.977589 0.0324835 0.0 
0.909369 0.122813 0.0 
1.12412 0.221865 0.0 
0.850739 0.124904 0.0 
-0.0461551 -0.0177359 0.0 
0.9787 0.0305988 0.0 
0.924653 0.0742857 0.0 
0.737925 0.140945 0.0 
0.979553 0.0273068 0.0 
0.911059 0.150947 0.0 
0.995836 0.0129066 0.0 
0.902557 0.10216 0.0 
0.97904 0.0284885 0.0 
0.853397 0.0561186 0.0 
0.830496 0.022901 0.0 
0.903487 0.165002 0.0 
0.998759 0.0117219 0.0 
0.968763 -0.0044354 0.0 
0.980023 0.0256304 0.0 
0.999101 0.0180632 0.0 
0.962582 -0.00446768 0.0 
0.961554 -0.00816604 0.0 
0.966052 -0.00392006 0.0 
0.937921 -0.0413677 0.0 
0.925471 0.0587122 0.0 
0.925993 0.0888176 0.0 
1.04088 -0.00243857 0.0 
0.989642 0.0326802 0.0 
1.06409 0.0270401 0.0 
0.999217 0.0149104 0.0 
1.0777 -0.00816127 0.0 
1.00495 0.0811919 0.0 
0.949471 0.0136709 0.0 
0.97674 0.027645 0.0 
1.04861 -0.161563 0.0 
1.09855 0.244842 0.0 
1.12289 0.233291 0.0 
0.933045 -0.0320316 0.0 
0.999109 0.0144283 0.0 
0.950973 0.0113112 0.0 
0.996335 0.0140051 0.0 
0.979439 0.00571494 0.0 
1.0546 0.00867614 0.0 
1.0474 -0.172223 0.0 
0.0637126 0.00749166 0.0 