<VTKFile type="UnstructuredGrid" version="0.1" byte_order="LittleEndian">
  <UnstructuredGrid>
    <Piece NumberOfPoints="9712" NumberOfCells="19403">
      <Points>
        <DataArray type = "Float64" NumberOfComponents="3" format="ascii">
-5 -7 0.0 
15.5 -7 0.0 
15.5 7 0.0 
-5 7 0.0 
-1.6546 1.77742 0.0 
-2.13867 1.86504 0.0 
-1.83467 1.79143 0.0 
1.47969 -2.21179 0.0 
1.36003 -2.38618 0.0 
1.4346 -2.45048 0.0 
-2.04214 1.94165 0.0 
-0.20425 1.17338 0.0 
-2.07648 1.81911 0.0 
-2.00827 1.89081 0.0 
-2.05492 1.98872 0.0 
0.192693 0.536219 0.0 
0.154285 1.75648 0.0 
1.1379 -1.62057 0.0 
-2.11226 1.96977 0.0 
-1.74119 1.75327 0.0 
1.14499 -1.58184 0.0 
-1.94373 2.37229 0.0 
1.50619 -0.664239 0.0 
1.99658 -1.76705 0.0 
1.7229 -1.18344 0.0 
-1.97759 2.52091 0.0 
-0.768046 0.387136 0.0 
1.32657 -1.43969 0.0 
1.90142 0.24821 0.0 
-0.93264 1.51038 0.0 
1.09557 0.967223 0.0 
0.627111 0.757352 0.0 
-2.05707 2.31394 0.0 
1.34027 -2.45136 0.0 
-0.725097 0.397516 0.0 
-0.666094 2.30428 0.0 
-0.73829 -0.279965 0.0 
1.73336 -1.08822 0.0 
1.88466 -1.24421 0.0 
1.50539 -1.23752 0.0 
1.65978 -1.30759 0.0 
-0.0409718 0.542603 0.0 
1.6005 -1.1227 0.0 
1.78439 -0.941488 0.0 
1.86015 -1.54236 0.0 
1.49308 -1.40058 0.0 
2.34892 -1.47149 0.0 
2.13832 -1.3246 0.0 
1.73061 0.751302 0.0 
-0.580328 0.526903 0.0 
1.51013 -2.1595 0.0 
-1.65424 3.45779 0.0 
-1.51397 2.46352 0.0 
1.42773 -2.17867 0.0 
0.304353 0.497878 0.0 
2.24628 0.228293 0.0 
1.51258 -2.27933 0.0 
-1.60346 3.44299 0.0 
-1.71408 2.36227 0.0 
2.17421 0.530405 0.0 
2.42 0.316451 0.0 
-1.63642 3.31911 0.0 
2.53942 -0.995036 0.0 
0.750003 0.810439 0.0 
2.04736 0.40918 0.0 
1.19615 -1.50641 0.0 
2.13474 0.494063 0.0 
0.547924 0.306722 0.0 
-0.2059 0.361394 0.0 
2.2127 0.547693 0.0 
1.41442 -0.597105 0.0 
1.52233 -1.46252 0.0 
-1.84114 2.53924 0.0 
-5 -2.53894 0.0 
2.32127 0.371156 0.0 
-1.69186 3.33379 0.0 
-0.964779 0.566136 0.0 
-1.81311 2.48387 0.0 
-1.78557 3.38304 0.0 
1.48278 0.914136 0.0 
2.51531 -1.89689 0.0 
1.20982 -0.330514 0.0 
0.408434 0.319657 0.0 
0.95023 0.60993 0.0 
-0.752349 0.440796 0.0 
-0.998248 0.564019 0.0 
-1.73165 3.36299 0.0 
1.24353 -1.49063 0.0 
0.942095 0.817189 0.0 
-1.77816 2.47096 0.0 
2.48183 -1.95479 0.0 
1.33574 -1.77854 0.0 
0.823335 1.12085 0.0 
-0.36308 0.598468 0.0 
0.745466 0.783414 0.0 
-1.88344 2.8521 0.0 
-1.79794 3.52221 0.0 
3.0087 0.272815 0.0 
-1.81486 2.66014 0.0 
0.375911 -0.403668 0.0 
-0.68323 0.487288 0.0 
-0.34187 -0.274923 0.0 
-0.293875 -0.201368 0.0 
1.61018 -1.767 0.0 
-0.448275 -0.347267 0.0 
-1.08687 0.352015 0.0 
1.29257 -1.76345 0.0 
1.67658 -1.49551 0.0 
1.19193 0.533009 0.0 
1.21582 -1.91654 0.0 
-0.36438 -0.346225 0.0 
-0.92534 0.330346 0.0 
2.3836 0.287756 0.0 
1.68841 0.639887 0.0 
1.59001 -1.89458 0.0 
1.14818 -1.92143 0.0 
1.28996 -2.19426 0.0 
1.37603 -1.8763 0.0 
1.23834 -2.09141 0.0 
1.11702 -2.06287 0.0 
0.691829 0.463808 0.0 
1.46523 -2.03459 0.0 
-0.123547 0.424486 0.0 
-1.3311 2.12174 0.0 
1.08169 -1.90074 0.0 
1.87975 -2.15971 0.0 
1.10131 -1.78593 0.0 
1.13722 0.534683 0.0 
1.42465 -1.59031 0.0 
-1.45435 2.47344 0.0 
1.41998 -1.98207 0.0 
0.463917 1.8787 0.0 
-1.72896 2.89571 0.0 
1.12419 -1.84975 0.0 
1.59054 -1.20634 0.0 
0.46124 0.621002 0.0 
0.806438 -1.00204 0.0 
2.1804 0.349761 0.0 
2.21142 -1.6418 0.0 
1.10152 -0.274558 0.0 
2.23388 0.387302 0.0 
0.137769 0.567007 0.0 
1.88736 0.267391 0.0 
1.26821 -1.94267 0.0 
0.21033 -0.605707 0.0 
2.61094 -1.50046 0.0 
0.819837 0.743337 0.0 
-1.4303 2.07799 0.0 
1.82013 0.322126 0.0 
-1.47649 2.2099 0.0 
1.15745 -0.274223 0.0 
-1.81198 2.24994 0.0 
2.34337 -1.67775 0.0 
-1.13329 1.37877 0.0 
-0.828215 1.05292 0.0 
2.46752 -1.53452 0.0 
-1.69915 2.18529 0.0 
-0.404416 -0.286271 0.0 
-1.23501 1.31766 0.0 
2.11757 -1.50659 0.0 
-1.08535 1.28274 0.0 
2.58548 -1.70783 0.0 
0.24729 -0.572345 0.0 
-1.66963 2.25319 0.0 
1.58322 -1.62308 0.0 
-0.367923 -0.306026 0.0 
0.391521 1.44485 0.0 
1.88977 -2.46319 0.0 
1.5943 -1.53613 0.0 
-0.357143 -0.23651 0.0 
0.82621 0.80563 0.0 
-1.59261 2.31884 0.0 
-0.47244 -0.307516 0.0 
-0.40334 -0.326688 0.0 
-2.00063 2.11543 0.0 
1.55514 -1.95078 0.0 
-1.40431 2.26352 0.0 
-0.0265928 0.573714 0.0 
1.17093 1.10579 0.0 
-1.77907 2.22111 0.0 
0.682788 0.329642 0.0 
-0.54475 2.15572 0.0 
-0.288592 0.289433 0.0 
-1.43199 2.16349 0.0 
-1.45029 2.25134 0.0 
1.5535 -1.79992 0.0 
-1.06406 1.08381 0.0 
1.72954 1.44966 0.0 
0.582806 0.515814 0.0 
0.582876 -0.679913 0.0 
1.32351 -0.355916 0.0 
-0.47505 0.577092 0.0 
-0.371167 0.227715 0.0 
1.52235 -1.8529 0.0 
-0.429822 -0.244811 0.0 
-0.53237 -0.24648 0.0 
-0.393983 -0.210364 0.0 
0.652895 0.317361 0.0 
1.55812 -1.70765 0.0 
1.63021 0.325622 0.0 
0.442731 0.358729 0.0 
1.22925 -1.85192 0.0 
1.43517 -1.79082 0.0 
1.39317 -1.6984 0.0 
1.62965 0.295952 0.0 
0.905462 0.793465 0.0 
1.04036 -1.64811 0.0 
2.1131 -1.72466 0.0 
-0.743911 0.369492 0.0 
1.14427 -1.99314 0.0 
1.26033 -2.0209 0.0 
-1.70955 2.07308 0.0 
0.910023 -1.62976 0.0 
-0.313059 -0.0954838 0.0 
-1.77334 2.3988 0.0 
-0.311958 -0.24042 0.0 
2.53315 0.325608 0.0 
-0.273728 -0.226719 0.0 
-0.646401 0.379627 0.0 
1.52426 0.616074 0.0 
2.21703 -1.79499 0.0 
2.71108 0.312216 0.0 
0.759924 1.093 0.0 
-1.69271 2.12368 0.0 
0.255794 0.540969 0.0 
0.0534699 0.562158 0.0 
-1.5679 2.22408 0.0 
-1.66906 2.45165 0.0 
-1.51895 2.09449 0.0 
2.16948 0.408238 0.0 
-0.818806 0.680638 0.0 
-0.826868 0.642087 0.0 
0.519855 0.276992 0.0 
-0.716682 1.18602 0.0 
-0.649974 -0.148775 0.0 
0.457368 0.256619 0.0 
0.517407 0.248194 0.0 
0.327129 0.39802 0.0 
0.533249 -0.878832 0.0 
-0.870735 0.634904 0.0 
1.19219 1.07557 0.0 
2.35922 0.366028 0.0 
-1.66911 3.66723 0.0 
-0.857603 1.54934 0.0 
-0.379189 2.30131 0.0 
-0.941007 1.36523 0.0 
-1.58662 2.49682 0.0 
-0.545297 0.352587 0.0 
0.327944 -0.744683 0.0 
-0.312756 0.524741 0.0 
-0.107843 0.506233 0.0 
2.13378 -2.36584 0.0 
1.52689 0.686953 0.0 
-0.119983 0.327909 0.0 
1.02161 -1.53072 0.0 
1.51507 0.39695 0.0 
-0.674484 1.02605 0.0 
-0.564724 -0.148435 0.0 
0.409388 0.290913 0.0 
0.252349 0.30842 0.0 
-1.09282 1.45998 0.0 
1.45674 -1.54484 0.0 
-0.266777 0.782169 0.0 
0.91327 -0.874389 0.0 
1.01208 1.13309 0.0 
-0.897136 1.35063 0.0 
-0.846484 0.489353 0.0 
1.47563 0.663768 0.0 
-1.22282 2.05021 0.0 
0.348906 0.416714 0.0 
1.41913 0.964648 0.0 
0.933289 -0.839038 0.0 
-1.85066 1.40221 0.0 
0.142477 1.99435 0.0 
-0.717809 0.341194 0.0 
-2.21177 1.41584 0.0 
0.396571 0.350929 0.0 
1.25171 -1.60721 0.0 
0.736798 0.393502 0.0 
-0.661427 0.19031 0.0 
2.18751 -2.32769 0.0 
-1.00908 1.6747 0.0 
2.21416 -2.07269 0.0 
-0.779194 0.642011 0.0 
-1.02312 1.3939 0.0 
2.08809 -2.24876 0.0 
-5 -4.48794 0.0 
1.61792 -1.46215 0.0 
-0.974627 1.38947 0.0 
1.81166 -2.48446 0.0 
-1.03635 1.47474 0.0 
0.869004 -1.74424 0.0 
0.956579 -1.78598 0.0 
1.07495 0.540689 0.0 
-1.08005 1.37763 0.0 
0.914755 -0.803058 0.0 
0.611759 -0.305322 0.0 
1.70043 -1.41356 0.0 
0.75708 -0.631542 0.0 
1.21215 1.01979 0.0 
-0.586902 0.440014 0.0 
1.9251 -2.56336 0.0 
-1.58261 1.91091 0.0 
-0.746541 1.26087 0.0 
-1.49915 1.13657 0.0 
-1.46675 0.971536 0.0 
-1.05881 0.930935 0.0 
0.71826 0.415078 0.0 
-0.701697 0.526982 0.0 
-1.56194 2.05157 0.0 
1.15988 0.991244 0.0 
1.38676 0.949615 0.0 
-1.61697 2.02689 0.0 
1.13748 -0.357331 0.0 
-1.8456 2.04561 0.0 
0.253686 -0.756334 0.0 
-1.53603 1.86509 0.0 
-1.43465 0.924137 0.0 
-1.00273 1.27416 0.0 
-1.03063 1.5132 0.0 
-1.32483 1.94769 0.0 
-0.965552 1.61445 0.0 
-0.239859 -0.245939 0.0 
-5 3.01776 0.0 
-5 -0.248741 0.0 
0.517491 1.87079 0.0 
-1.18776 1.8875 0.0 
2.27458 0.36201 0.0 
1.9794 0.331487 0.0 
0.503086 0.510306 0.0 
1.26387 -0.370702 0.0 
1.24483 0.550197 0.0 
1.12871 0.979556 0.0 
-1.48659 1.83259 0.0 
1.0672 0.958366 0.0 
-1.16856 1.61214 0.0 
-0.218637 -0.230696 0.0 
-5 1.81431 0.0 
1.37014 1.04658 0.0 
0.0950623 0.557621 0.0 
-1.23613 1.67303 0.0 
0.953731 -0.709843 0.0 
2.07568 -1.85385 0.0 
2.10836 -1.82014 0.0 
-0.994952 1.33552 0.0 
-1.86986 1.52312 0.0 
0.515812 0.447542 0.0 
0.842446 0.992035 0.0 
-1.42353 1.8223 0.0 
2.091 0.354014 0.0 
-0.937663 0.401428 0.0 
-1.69305 1.41997 0.0 
-1.82465 1.55127 0.0 
2.15192 0.384657 0.0 
-1.17972 1.37998 0.0 
-0.718866 -0.0130647 0.0 
-0.927867 0.290435 0.0 
1.56509 0.300406 0.0 
-5 -3.04052 0.0 
9.98027 -7 0.0 
0.176009 0.694641 0.0 
0.597997 -0.559941 0.0 
-0.546583 0.4849 0.0 
0.602022 -0.657834 0.0 
2.17737 0.379672 0.0 
1.89809 0.287017 0.0 
-1.58883 1.35796 0.0 
-1.2284 1.37063 0.0 
-1.43937 1.35342 0.0 
-1.59664 1.47263 0.0 
0.577431 -0.368705 0.0 
1.5263 -1.51093 0.0 
0.479666 0.796509 0.0 
0.894995 1.01463 0.0 
2.22312 0.363016 0.0 
-0.320562 0.726481 0.0 
-1.30188 2.41386 0.0 
0.43802 0.434693 0.0 
-0.761697 0.762024 0.0 
1.45688 -1.49591 0.0 
-0.65072 0.676835 0.0 
1.6097 -1.41509 0.0 
2.25768 0.399237 0.0 
1.85518 0.299709 0.0 
2.14618 0.290757 0.0 
2.25222 0.371677 0.0 
-1.93063 2.91367 0.0 
1.52717 0.319618 0.0 
1.67964 -1.62237 0.0 
1.35962 -0.439169 0.0 
1.63007 -1.54335 0.0 
-5 -0.764504 0.0 
-1.61377 2.62271 0.0 
1.73865 -1.57725 0.0 
-0.908306 1.23669 0.0 
1.60766 0.330292 0.0 
1.82509 -1.63054 0.0 
1.90521 0.312457 0.0 
1.98719 -1.6488 0.0 
-0.528791 0.39225 0.0 
1.94978 -2.39003 0.0 
-0.472559 0.718465 0.0 
-1.28058 2.26572 0.0 
0.881581 -0.556282 0.0 
2.26369 0.42542 0.0 
0.917309 -1.69962 0.0 
0.853954 -1.60945 0.0 
1.30086 -0.404316 0.0 
1.99565 -2.46852 0.0 
1.49445 -1.47573 0.0 
1.68285 0.863315 0.0 
2.03074 -2.37549 0.0 
2.52279 -0.506167 0.0 
2.56049 -1.76899 0.0 
-1.52889 2.56597 0.0 
2.81136 -0.570221 0.0 
1.3688 -1.46095 0.0 
1.29524 -0.373946 0.0 
-0.350504 0.671928 0.0 
-0.590282 0.564035 0.0 
-0.054366 2.16706 0.0 
1.50819 1.22548 0.0 
-0.548222 0.453941 0.0 
2.19936 -2.5207 0.0 
12.2704 -7 0.0 
1.6811 -1.36761 0.0 
-0.449261 0.559535 0.0 
0.537017 -0.527614 0.0 
-0.00733391 0.553304 0.0 
0.494109 -0.356396 0.0 
-0.7939 0.0827441 0.0 
0.39888 0.467333 0.0 
-1.04288 1.34095 0.0 
0.605019 1.02824 0.0 
0.847559 0.374727 0.0 
1.00336 0.618307 0.0 
2.1955 0.399186 0.0 
0.656973 0.401158 0.0 
-0.998431 2.73564 0.0 
[...]
<PointData>
  <DataArray type = "Float64" Name="VitesseP1" NumberOfComponents="3" format="ascii">
1 0 0.0 
1.06959 0 0.0 
1.02116 0 0.0 
1 0 0.0 
0.994504 0.01598 0.0 
0.996848 0.011283 0.0 
0.995403 0.0137758 0.0 
1.03763 -0.00543367 0.0 
1.03854 -0.00828963 0.0 
1.04223 -0.00789501 0.0 
0.997699 0.0122233 0.0 
0.985946 0.0726415 0.0 
0.996537 0.0116153 0.0 
0.996746 0.0124135 0.0 
0.998871 0.0122286 0.0 
0.992139 0.217567 0.0 
1.01859 0.0542937 0.0 
1.05129 -0.0256133 0.0 
0.998798 0.0116426 0.0 
0.994931 0.0147052 0.0 
1.05492 -0.0264435 0.0 
0.998768 0.0135915 0.0 
1.15794 -0.0227517 0.0 
1.04878 0.0111002 0.0 
1.06055 -0.00096485 0.0 
0.998723 0.013178 0.0 
0.944351 0.00874069 0.0 
1.06087 -0.0214087 0.0 
0.0667947 0.0199904 0.0 
0.988537 0.0316004 0.0 
1.14035 0.0651946 0.0 
1.10929 0.140759 0.0 
0.998772 0.0125839 0.0 
1.02985 -0.0209312 0.0 
0.941196 0.0123201 0.0 
1.00526 0.0308397 0.0 
0.936877 -0.0512596 0.0 
1.08143 -0.000406479 0.0 
1.0532 0.00931297 0.0 
1.05202 -0.0146192 0.0 
1.05454 -0.00441495 0.0 
0.926716 0.151319 0.0 
1.07235 -0.00980131 0.0 
1.12316 0.0036206 0.0 
1.06552 0.00666746 0.0 
1.06113 -0.0132289 0.0 
1.05797 0.0329155 0.0 
1.05332 0.0240623 0.0 
1.19561 0.01864 0.0 
0.93938 0.035621 0.0 
1.0372 -0.00508363 0.0 
1.00249 0.0126106 0.0 
0.999684 0.0177968 0.0 
1.03672 -0.00690381 0.0 
1.03764 0.242413 0.0 
0.0452876 0.0141625 0.0 
1.03821 -0.00451958 0.0 
1.00271 0.0130171 0.0 
0.998981 0.0158702 0.0 
1.1847 -0.0261862 0.0 
0.235272 -0.0354655 0.0 
1.00233 0.0132771 0.0 
1.0887 0.0607657 0.0 
1.1219 0.118978 0.0 
0.616296 -0.00393691 0.0 
1.0591 -0.0262738 0.0 
1.11442 -0.0203929 0.0 
0.558621 0.134395 0.0 
0.862604 0.0852973 0.0 
1.19631 -0.0323026 0.0 
1.19945 -0.0342215 0.0 
1.06435 -0.0110145 0.0 
0.998927 0.0143317 0.0 
1 0 0.0 
0.41359 -0.0350527 0.0 
1.0021 0.0128476 0.0 
0.968001 0.0106612 0.0 
0.998951 0.0146873 0.0 
1.00174 0.0120165 0.0 
1.16991 0.0302945 0.0 
1.03627 0.019477 0.0 
0.760905 -0.0393317 0.0 
0.949542 0.262543 0.0 
1.17266 0.112313 0.0 
0.945998 0.0142713 0.0 
0.969818 0.0089621 0.0 
1.00202 0.0124514 0.0 
1.06025 -0.0244931 0.0 
1.14226 0.0950206 0.0 
0.999015 0.0150385 0.0 
1.04215 0.0239877 0.0 
1.0456 -0.0146729 0.0 
1.09489 0.0782233 0.0 
0.93533 0.0699613 0.0 
1.12431 0.123095 0.0 
0.999752 0.0131338 0.0 
1.00225 0.011245 0.0 
0.0988616 -0.145394 0.0 
0.999107 0.0142744 0.0 
1.19191 -0.233975 0.0 
0.943902 0.0230265 0.0 
0.918754 -0.0883171 0.0 
0.915703 -0.0744547 0.0 
1.04943 -0.00431227 0.0 
0.924237 -0.0782184 0.0 
0.966993 -0.00810045 0.0 
1.04557 -0.0165373 0.0 
1.06589 -0.00270119 0.0 
1.19652 0.0789428 0.0 
1.03827 -0.0163069 0.0 
0.919966 -0.0885491 0.0 
0.954653 -0.00359037 0.0 
0.149908 -0.017682 0.0 
1.20089 0.0256357 0.0 
1.0437 -0.00433746 0.0 
1.03685 -0.0180919 0.0 
1.035 -0.00974006 0.0 
1.04239 -0.0118069 0.0 
1.03389 -0.0128508 0.0 
1.03181 -0.0172568 0.0 
1.16423 0.18241 0.0 
1.03728 -0.00720263 0.0 
0.877143 0.125791 0.0 
0.998962 0.021283 0.0 
1.03623 -0.020413 0.0 
1.03694 0.00454437 0.0 
1.04054 -0.0225649 0.0 
1.19592 0.0868145 0.0 
1.0606 -0.0142089 0.0 
0.999929 0.01843 0.0 
1.03815 -0.00911404 0.0 
1.0276 0.047747 0.0 
1.00063 0.0141962 0.0 
1.03884 -0.0203761 0.0 
1.05615 -0.00951824 0.0 
1.08728 0.188027 0.0 
1.06772 -0.0721246 0.0 
0.268563 -0.0027564 0.0 
1.05417 0.0216412 0.0 
0.458969 -0.0381455 0.0 
0.480541 -0.0251749 0.0 
0.977506 0.196053 0.0 
0.0743218 0.0176289 0.0 
1.03788 -0.0142952 0.0 
1.03052 -0.160108 0.0 
1.04521 0.0475775 0.0 
1.13854 0.118586 0.0 
0.998685 0.019874 0.0 
0.105435 0.0158484 0.0 
0.998837 0.0189537 0.0 
0.412388 -0.0163362 0.0 
0.998678 0.0149404 0.0 
1.04737 0.0257804 0.0 
0.984986 0.0247917 0.0 
0.973248 0.0345182 0.0 
1.05194 0.0367699 0.0 
0.998504 0.0161976 0.0 
0.922722 -0.0794623 0.0 
0.98401 0.0211904 0.0 
1.06326 0.0199882 0.0 
0.981407 0.0256298 0.0 
1.03361 0.0312756 0.0 
1.03991 -0.170583 0.0 
0.998783 0.0164974 0.0 
1.05941 -0.00651254 0.0 
0.920123 -0.0858284 0.0 
1.03281 0.0696796 0.0 
1.04153 -0.000186443 0.0 
1.06519 -0.00667542 0.0 
0.916453 -0.0816483 0.0 
1.13175 0.110533 0.0 
0.999087 0.0172945 0.0 
0.927573 -0.0726578 0.0 
0.922118 -0.0825256 0.0 
0.998567 0.0129707 0.0 
1.04066 -0.00521235 0.0 
0.999326 0.019796 0.0 
0.938776 0.151254 0.0 
1.12747 0.0469069 0.0 
0.998619 0.0152995 0.0 
0.636456 0.110162 0.0 
1.00586 0.0349746 0.0 
0.863178 0.0453089 0.0 
0.998798 0.019674 0.0 
0.999136 0.019207 0.0 
1.04729 -0.00629816 0.0 
0.973769 0.0240829 0.0 
1.06806 -0.0355389 0.0 
1.14132 0.198275 0.0 
1.1085 -0.127957 0.0 
0.879742 -0.0278123 0.0 
0.938047 0.0518392 0.0 
0.87488 0.0163161 0.0 
1.04492 -0.00701318 0.0 
0.924015 -0.0730351 0.0 
0.933118 -0.0625153 0.0 
0.9188 -0.0741925 0.0 
0.583542 0.110513 0.0 
1.05268 -0.00689998 0.0 
0.105999 0.0158356 0.0 
1.0378 0.26427 0.0 
1.04092 -0.0170681 0.0 
1.04654 -0.0108477 0.0 
1.05138 -0.0138388 0.0 
0.0843642 0.0147199 0.0 
1.14161 0.101802 0.0 
1.04646 -0.0284102 0.0 
1.04975 0.0161315 0.0 
0.941239 0.00857281 0.0 
1.03367 -0.0171258 0.0 
1.03496 -0.0132672 0.0 
0.998662 0.0160695 0.0 
1.0434 -0.0333613 0.0 
0.898746 -0.0655312 0.0 
0.998949 0.0152029 0.0 
0.909701 -0.0856688 0.0 
0.303955 -0.0635 0.0 
0.887876 -0.0838495 0.0 
0.932437 0.0160688 0.0 
1.19949 0.0396769 0.0 
1.04481 0.0188575 0.0 
0.364546 -0.0785367 0.0 
1.09459 0.0859006 0.0 
0.998465 0.0162777 0.0 
1.01886 0.222397 0.0 
0.951342 0.176912 0.0 
0.998776 0.0177504 0.0 
0.999216 0.016162 0.0 
0.998658 0.0185667 0.0 
0.616898 -0.0172769 0.0 
0.967581 0.0251289 0.0 
0.965273 0.0226328 0.0 
0.415183 0.135608 0.0 
0.97621 0.0409911 0.0 
0.940246 -0.0443565 0.0 
0.302055 0.101472 0.0 
0.375756 0.18435 0.0 
1.06338 0.296175 0.0 
1.06887 -0.10207 0.0 
0.967038 0.0195576 0.0 
1.13514 0.0469771 0.0 
0.405648 -0.0383493 0.0 
1.00055 0.0119369 0.0 
0.990128 0.0339413 0.0 
1.0094 0.0355095 0.0 
0.983549 0.0312481 0.0 
0.999515 0.0169051 0.0 
0.918555 0.0212986 0.0 
1.05841 -0.130895 0.0 
0.918803 0.0755336 0.0 
0.908542 0.13174 0.0 
1.04062 0.0137706 0.0 
1.19034 0.0368792 0.0 
0.829725 0.116507 0.0 
1.05406 -0.0329284 0.0 
0.584417 0.0204736 0.0 
0.975592 0.0435722 0.0 
0.932638 -0.0502634 0.0 
0.702809 0.194407 0.0 
0.899538 0.338656 0.0 
0.987088 0.0264692 0.0 
1.06349 -0.0132468 0.0 
0.967078 0.0861288 0.0 
1.1123 -0.0751607 0.0 
1.10863 0.0606226 0.0 
0.982916 0.032895 0.0 
0.956123 0.0121046 0.0 
1.19116 0.0424494 0.0 
0.999055 0.0233029 0.0 
1.07758 0.283144 0.0 
1.16289 0.0326956 0.0 
1.12267 -0.0760805 0.0 
0.994007 0.0102795 0.0 
1.01713 0.046669 0.0 
0.937246 0.00745955 0.0 
0.997185 0.00859813 0.0 
1.01882 0.283657 0.0 
1.05555 -0.0213598 0.0 
1.00282 0.150175 0.0 
0.924989 -0.00660706 0.0 
1.03395 0.0285631 0.0 
0.992628 0.0289921 0.0 
1.03501 0.0155331 0.0 
0.962683 0.025812 0.0 
0.984797 0.0284558 0.0 
1.0331 0.0075742 0.0 
1 0 0.0 
1.06519 -0.00593231 0.0 
0.984508 0.0301036 0.0 
1.04043 -0.000271189 0.0 
0.987368 0.0282594 0.0 
1.03545 -0.0305997 0.0 
1.03677 -0.0269583 0.0 
1.19303 0.096327 0.0 
0.984604 0.0264802 0.0 
1.12834 -0.0806732 0.0 
0.914799 -0.146013 0.0 
1.06348 -0.00170879 0.0 
1.12729 -0.113419 0.0 
1.14402 0.0490655 0.0 
0.931169 0.0272977 0.0 
1.03726 0.00346798 0.0 
0.995843 0.0174565 0.0 
0.979466 0.0393792 0.0 
0.983928 0.0112764 0.0 
0.995496 0.0105394 0.0 
0.990077 0.0213907 0.0 
1.09121 0.166761 0.0 
0.948447 0.0245752 0.0 
0.998641 0.0179314 0.0 
1.14305 0.0565887 0.0 
1.16185 0.0365554 0.0 
0.99839 0.017169 0.0 
0.936329 -0.0555231 0.0 
0.99904 0.0144406 0.0 
1.04264 -0.127761 0.0 
0.994927 0.0180503 0.0 
1.00026 0.0111968 0.0 
0.980526 0.0285133 0.0 
0.988623 0.0285095 0.0 
0.996458 0.0216689 0.0 
0.991694 0.0303727 0.0 
0.8822 -0.105642 0.0 
1 0 0.0 
1 0 0.0 
1.0294 0.0470876 0.0 
0.995095 0.0243264 0.0 
0.35053 -0.0248142 0.0 
0.14044 0.0180346 0.0 
1.1169 0.215779 0.0 
0.965891 -0.0424215 0.0 
1.2002 0.0722033 0.0 
1.14179 0.0607476 0.0 
0.994349 0.0187594 0.0 
1.13895 0.0689306 0.0 
0.991663 0.0248261 0.0 
0.948468 -0.164071 0.0 
1 0 0.0 
1.15302 0.0311938 0.0 
0.961653 0.189471 0.0 
0.99262 0.0233398 0.0 
1.14301 -0.0834635 0.0 
1.04403 0.0131874 0.0 
1.04511 0.0147597 0.0 
0.982638 0.0291882 0.0 
0.995288 0.0115358 0.0 
1.12871 0.231065 0.0 
1.11679 0.089204 0.0 
0.994092 0.0198164 0.0 
0.254883 0.004059 0.0 
0.958338 0.00120187 0.0 
0.992013 0.0123292 0.0 
0.995214 0.0122522 0.0 
0.435652 -0.00906995 0.0 
0.985345 0.0234024 0.0 
0.948716 -0.0292538 0.0 
0.953428 -0.00680236 0.0 
0.095732 -0.00181291 0.0 
1 0 0.0 
1.05785 0 0.0 
1.00766 0.165551 0.0 
1.11948 -0.145067 0.0 
0.931926 0.0357684 0.0 
1.11247 -0.129215 0.0 
0.411635 -0.0118811 0.0 
0.0829089 0.0180705 0.0 
0.989536 0.0130554 0.0 
0.985489 0.0219159 0.0 
0.987311 0.0162003 0.0 
0.991565 0.0144985 0.0 
1.10952 -0.1727 0.0 
1.06479 -0.0102619 0.0 
1.07929 0.145959 0.0 
1.11952 0.082046 0.0 
0.33987 -0.0145492 0.0 
0.956625 0.0790116 0.0 
1.00044 0.0205258 0.0 
1.11153 0.256155 0.0 
0.972243 0.032545 0.0 
1.06402 -0.014005 0.0 
0.95925 0.0378328 0.0 
1.06319 -0.00676505 0.0 
0.568282 -0.0321036 0.0 
0.0878741 0.016229 0.0 
0.0767036 0.0207871 0.0 
0.393866 -0.0232125 0.0 
0.999761 0.0125633 0.0 
0.0766673 0.00238797 0.0 
1.05996 -0.00210268 0.0 
1.16397 -0.0390626 0.0 
1.06523 -0.00487335 0.0 
1 0 0.0 
0.99963 0.0162162 0.0 
1.06391 0.000624283 0.0 
0.978892 0.032084 0.0 
0.104199 0.0121724 0.0 
1.05953 0.0046158 0.0 
0.103268 0.0162245 0.0 
1.05706 0.0118173 0.0 
0.92025 0.0279657 0.0 
1.0369 0.00129863 0.0 
0.957296 0.0581901 0.0 
0.999801 0.0215131 0.0 
1.19454 -0.108234 0.0 
0.76639 -0.0371953 0.0 
1.03936 -0.0306928 0.0 
1.04286 -0.035786 0.0 
1.07355 -0.0413419 0.0 
1.04797 0.00975373 0.0 
1.06433 -0.0123373 0.0 
1.18364 0.0141164 0.0 
1.03644 0.0128438 0.0 
1.2384 0.0859829 0.0 
1.03478 0.026338 0.0 
0.999832 0.0172677 0.0 
1.16231 0.110464 0.0 
1.0621 -0.0190058 0.0 
0.979129 -0.0424077 0.0 
0.947698 0.0739826 0.0 
0.944159 0.0372853 0.0 
1.01406 0.0427814 0.0 
1.12831 -0.00260347 0.0 
0.928825 0.0326213 0.0 
1.01322 -0.00273061 0.0 
1.05276 0 0.0 
1.06024 -0.00291158 0.0 
0.933771 0.0543153 0.0 
1.13915 -0.162736 0.0 
0.93558 0.160207 0.0 
1.10385 -0.194341 0.0 
0.952746 -0.0199957 0.0 
1.08774 0.250057 0.0 
0.983116 0.0274955 0.0 
1.08646 0.10365 0.0 
0.794299 0.100425 0.0 
1.17516 0.103178 0.0 
0.553821 -0.0205241 0.0 
1.07757 0.185132 0.0 
1.00391 0.0216077 0.0 
1.05662 0.0144861 0.0 
1.042 0.00782151 0.0 
1.04986 -0.00136253 0.0 
1.04757 -0.000352053 0.0 
0.127741 0.0128241 0.0 
1.04032 0.00133043 0.0 
0.0608468 0.0229331 0.0 
1.11815 -0.0761003 0.0 
1.0039 0.0353891 0.0 
1.04446 0.00845706 0.0 
1 0 0.0 
0.983108 0.0263304 0.0 
1.19345 0.0920874 0.0 
0.865029 -0.076492 0.0 
0.999485 0.0156527 0.0 
0.991579 0.0391343 0.0 
1.05193 0.00943951 0.0 
1.05605 0.00481215 0.0 
0.939803 0.188826 0.0 
0.783994 0.129854 0.0 
1.00416 0.0186558 0.0 
1.15975 0.13988 0.0 
0.999853 0.242911 0.0 
0.999002 0.0122508 0.0 
0.986053 0.0291421 0.0 
1.05348 0.000750173 0.0 
0.937791 0.124519 0.0 
0.253114 -0.0363418 0.0 
1.05253 0.00281915 0.0 
0.174762 0.0988839 0.0 
1.05277 -0.00127238 0.0 
1.08583 -0.0406743 0.0 
1.01536 0.0479731 0.0 
1.14492 -0.080574 0.0 
1.04892 0.00173789 0.0 
0.956935 -0.00619854 0.0 
0.367309 0.0131566 0.0 
1.06116 -0.0224434 0.0 
0.946491 -0.00139959 0.0 
0.999686 0.0153491 0.0 
1.05864 -0.0271866 0.0 
0.941744 0.0656981 0.0 
1.19493 -0.0420592 0.0 
0.355065 -0.061077 0.0 
0.695525 -0.0435747 0.0 
0.941017 -0.00457762 0.0 
0.964602 0.272065 0.0 
0.252549 0.0476903 0.0 
0.997034 0.315616 0.0 
1.01899 -0.0287232 0.0 
1.07737 -0.0416304 0.0 
0.785605 -0.00972962 0.0 
0.358331 0.116295 0.0 
1.10029 0.0687797 0.0 
0.998621 0.012342 0.0 
0.624073 -0.00583618 0.0 
0.23266 -0.0178109 0.0 
0.914803 -0.043387 0.0 
0.859484 -0.0556427 0.0 
1.02941 0.0431418 0.0 
0.998718 0.0119171 0.0 
1.02606 -0.0976317 0.0 
1.11944 -0.0303588 0.0 
1.16869 0.0193948 0.0 
0.0912453 0.0168317 0.0 
0.936378 -0.0575713 0.0 
1.0334 0.0372122 0.0 
1.06417 -0.00796686 0.0 
0.938032 -0.00896208 0.0 
0.14465 0.0131943 0.0 
0.99873 0.012854 0.0 
1.16828 0.0239538 0.0 
1.05779 -0.0265474 0.0 
0.963766 0.215816 0.0 
1.0496 0.0108558 0.0 
1.06528 0.000154296 0.0 
1.06515 0.00481788 0.0 
0.954491 0.0375885 0.0 
1.05946 -0.0243666 0.0 
0.998846 0.0140502 0.0 
0.952161 0.00708395 0.0 
1.1429 -0.0292423 0.0 
1.05112 0.0202382 0.0 
0.989281 0.00740593 0.0 
0.953364 0.0153445 0.0 
0.998882 0.0142408 0.0 
1.05542 0.00536126 0.0 
1.04117 -0.00392109 0.0 
1.05971 -0.0217082 0.0 
0.990447 0.00906032 0.0 
1.01987 0.0428881 0.0 
0.99885 0.0134598 0.0 
1.04768 -0.0263163 0.0 
1.06158 0.0187184 0.0 
0.064861 0.0203982 0.0 
0.0696596 0.021597 0.0 
1.0649 0.0146244 0.0 
0.90562 -0.0564329 0.0 
0.896449 -0.0456092 0.0 
0.883919 0.119261 0.0 
0.999308 0.0142009 0.0 
0.998789 0.0141469 0.0 
0.9627 -0.0131918 0.0 
0.964915 -0.00195297 0.0 
1.03423 0.0225018 0.0 
0.963774 0.234684 0.0 
1.06687 0.151406 0.0 
1.02783 -0.0449821 0.0 
0.077426 0.020323 0.0 
1.15654 0.0207195 0.0 
1.07418 0.140766 0.0 
0.998657 0.0136546 0.0 
1.01542 0.0332561 0.0 
1.10763 -0.00808215 0.0 
0.982849 0.0210125 0.0 
0.934441 0.0464548 0.0 
1.03338 -0.0285437 0.0 
0.973365 0.0374336 0.0 
0.94113 0.10895 0.0 
0.934109 0.0589666 0.0 
0.907028 -0.0730173 0.0 
0.962826 0.00714457 0.0 
0.796327 -0.0466317 0.0 
1.00089 0.0184477 0.0 
1.02933 0.0435514 0.0 
0.953711 -0.0101808 0.0 
0.96149 -0.00100041 0.0 
0.922565 0.0342318 0.0 
1.10151 0.248363 0.0 
0.972308 0.00611911 0.0 
0.942919 0.291571 0.0 
0.945359 0.0328183 0.0 
0.975207 0.226188 0.0 
0.850436 0.285834 0.0 
0.995155 0.00762543 0.0 
1.002 0 0.0 
0.998785 0.0122976 0.0 
0.977248 0.00158973 0.0 
0.896653 0.153259 0.0 
0.13907 0.00823602 0.0 
1.01033 0.0440226 0.0 
0.980763 0.00720778 0.0 
0.999377 0.0126964 0.0 
0.915996 -0.0718428 0.0 
0.91658 0.0330226 0.0 
1.19979 -0.0299058 0.0 
0.998654 0.0125784 0.0 
0.980288 0.0790273 0.0 
0.838175 -0.112701 0.0 
1.03505 -0.0231438 0.0 
0.936167 0.0636962 0.0 
0.995209 0.0163927 0.0 
0.944388 0.0275784 0.0 
0.99097 0.0202149 0.0 
0.0832173 0.020293 0.0 
0.833672 -0.104189 0.0 
1.03809 -0.00572146 0.0 
1.1456 0.0857062 0.0 
1.16532 -0.0590099 0.0 
0.997683 0.0108367 0.0 
0.982084 0.0187235 0.0 
1.00553 0.201535 0.0 
1.11396 0.156791 0.0 
0.585863 0.0951775 0.0 
0.951104 0.188992 0.0 
0.981462 0.019087 0.0 
0.391159 -0.07353 0.0 
0.98244 0.0220214 0.0 
0.997252 0.012914 0.0 
1.00024 0.0198856 0.0 
0.343506 -0.063383 0.0 
0.288922 -0.0565097 0.0 
0.981591 0.0302874 0.0 
0.340151 0.0578929 0.0 
1.19205 0.087759 0.0 
1.00958 0.0434719 0.0 
0.98074 0.0325455 0.0 
0.999608 0.0197765 0.0 
0.977923 0.0112902 0.0 
0.930261 0.0687404 0.0 
0.976608 0.0258134 0.0 
0.852115 0.285069 0.0 
0.587222 -0.0676529 0.0 
0.30897 -0.06128 0.0 
0.968178 0.0135626 0.0 
0.974793 0.0121938 0.0 
1.0543 0.204289 0.0 
0.412729 -0.0686073 0.0 
0.939817 0.0210376 0.0 
1.03661 -0.0375309 0.0 
0.98307 0.245611 0.0 
0.999162 0.0138347 0.0 
0.922503 0.0818429 0.0 
0.97223 0.0311356 0.0 
0.930101 0.143259 0.0 
0.961444 0.155665 0.0 
1.00891 0.254964 0.0 
0.798381 -0.0600713 0.0 
0.937441 -0.052314 0.0 
1.10903 0.0602553 0.0 
0.470769 0.0934778 0.0 
0.926588 -0.0596403 0.0 
0.188596 -0.0136347 0.0 
0.89916 -0.0128435 0.0 
0.751197 0.135634 0.0 
0.915332 -0.0664134 0.0 
0.9224 -0.0561311 0.0 
0.616027 0.165086 0.0 
1.04843 0.00657721 0.0 
0.940866 0.173319 0.0 
0.879734 -0.00489982 0.0 
0.928505 -0.0537088 0.0 
1.03646 -0.00757604 0.0 
0.34224 0.0414075 0.0 
1.03509 -0.0100426 0.0 
0.866109 0.00742697 0.0 
0.89859 0.217078 0.0 
1.04264 -0.00108198 0.0 
0.906908 -0.0880805 0.0 
0.923115 0.182438 0.0 
0.390977 -0.0723845 0.0 
1.12243 0.0634632 0.0 
1.03604 0.169474 0.0 
0.831584 0.38078 0.0 
1.10187 0.164177 0.0 
1.06461 0.259414 0.0 
1.03427 -0.0747033 0.0 
0.798894 -0.126258 0.0 
0.97772 0.0334123 0.0 
0.526203 0.0615784 0.0 
0.918667 -0.052629 0.0 
1.03993 0.0658206 0.0 
0.279876 -0.0158882 0.0 
1.04396 0.263338 0.0 
1.05321 0.0394386 0.0 
0.878997 0.105296 0.0 
1.00498 0.0221254 0.0 
0.892739 0.0669816 0.0 
0.22774 -0.00615778 0.0 
0.853292 0.0764219 0.0 
0.949397 0.0369332 0.0 
0.94725 0.00393605 0.0 
1.17129 -0.0358799 0.0 
0.763911 0.335316 0.0 
0.847651 0.0891359 0.0 
1.02756 0.0730129 0.0 
1.08184 -0.0945571 0.0 
0.921333 -0.0468604 0.0 
1.04036 0.271565 0.0 
0.964702 0.0169537 0.0 
0.995449 0.0405548 0.0 
0.910237 0.0770502 0.0 
0.924545 0.11265 0.0 
0.910649 0.0354655 0.0 
1.00903 0.027927 0.0 
0.919786 0.10597 0.0 
0.917423 0.220767 0.0 
0.999094 0.0129159 0.0 
1.09129 -0.069729 0.0 
0.405187 -0.0769083 0.0 
1.05435 0.250727 0.0 
0.966128 0.202909 0.0 
0.807108 0.15124 0.0 
0.826997 0.0382176 0.0 
0.88627 0.0298731 0.0 
1.04224 0.304983 0.0 
0.999478 0.0176088 0.0 
1.12435 0.138945 0.0 
1.03308 0.226136 0.0 
0.88673 -0.0483189 0.0 
0.922888 -0.0018804 0.0 
0.858381 0.158396 0.0 
0.910911 0.0207 0.0 
0.885165 0.0148865 0.0 
0.932548 -0.0460272 0.0 
0.934157 0.207164 0.0 
0.995497 0.0306195 0.0 
0.999466 0.0151147 0.0 
0.188197 -0.0061079 0.0 
0.166089 0.000316976 0.0 
0.912872 0.0278119 0.0 
0.527518 0.153659 0.0 
1.03558 -0.00886439 0.0 
0.92187 -0.0163394 0.0 
0.977945 -0.000900995 0.0 
0.902597 0.076516 0.0 
0.841959 0.00675297 0.0 
1.08113 -0.066167 0.0 
0.954991 0.00804467 0.0 
0.975496 0.00919855 0.0 
1.08428 0.267353 0.0 
0.32305 -0.0576865 0.0 
0.930674 0.300139 0.0 
0.972953 0.00271657 0.0 
0.988538 0.0543328 0.0 
1.06888 -0.228933 0.0 
0.968925 0.00475685 0.0 
0.96167 0.0126312 0.0 
0.997662 0.0134746 0.0 
1.03579 -0.00962763 0.0 
0.801096 0.107874 0.0 
0.904429 0.018435 0.0 
0.990923 0.00554881 0.0 
1.0284 -0.182316 0.0 
0.99509 0.0156637 0.0 
0.935441 0.0241742 0.0 
0.812578 0.167919 0.0 
0.949909 -0.00843091 0.0 
0.998094 0.0103145 0.0 
0.938671 0.00477763 0.0 
0.189077 0.128468 0.0 
0.943787 -0.00833587 0.0 
1.06227 -0.00919605 0.0 
0.953977 0.288556 0.0 
0.126036 0.0169431 0.0 
1.10149 0.254581 0.0 
0.988013 0.0150014 0.0 
0.976613 -0.15339 0.0 
0.968809 0.00191743 0.0 
0.959571 0.00921566 0.0 
0.959808 0.0046109 0.0 
0.544514 0.134863 0.0 
0.961842 0.00192773 0.0 
0.955903 -0.013519 0.0 
0.653338 0.184147 0.0 
1.03279 -0.0134104 0.0 
1.03263 0.0460509 0.0 
0.997639 0.265667 0.0 
0.9809 0.0210054 0.0 
0.975297 0.0291942 0.0 
0.964621 0.00400991 0.0 
0.893458 0.0129514 0.0 
0.958846 -0.0178245 0.0 
0.118769 0.00129694 0.0 
0.968662 -0.000152327 0.0 
1.05644 0.016903 0.0 
0.876239 0.167956 0.0 
0.996438 0.0122415 0.0 
1.06112 0.0264016 0.0 
1.05654 0.0947308 0.0 
1.10167 -0.0697668 0.0 
1.09564 0.104208 0.0 
0.976495 -0.00287435 0.0 
0.876903 0.182902 0.0 
0.996566 0.0146857 0.0 
0.996909 0.0113152 0.0 
0.890247 -0.0411915 0.0 
0.978555 0.0259707 0.0 
1.16409 -0.226517 0.0 
0.705821 0.0121017 0.0 
0.942008 0.0416082 0.0 
1.01757 0.302409 0.0 
0.908686 0.353096 0.0 
0.839137 0.132037 0.0 
1.15822 0.0728787 0.0 
0.154266 0.134119 0.0 
1.01878 0.289334 0.0 
1.06689 0.265451 0.0 
1.0366 -0.00684744 0.0 
0.938815 0.0941862 0.0 
0.056082 0.0149602 0.0 
1.17605 0.145712 0.0 
0.977629 0.0320658 0.0 
0.910032 0.121967 0.0 
1.1273 0.219026 0.0 
0.851489 0.124227 0.0 
-0.035305 -0.0208655 0.0 
0.97873 0.0302014 0.0 
0.925122 0.0736074 0.0 
0.747657 0.14015 0.0 
0.979583 0.0269436 0.0 
0.911827 0.150013 0.0 
0.995817 0.0127274 0.0 
0.903162 0.101411 0.0 
0.979072 0.0281126 0.0 
0.854013 0.055604 0.0 
0.831185 0.0224872 0.0 
0.904313 0.164074 0.0 
0.998716 0.011589 0.0 
0.968857 -0.00463552 0.0 
0.980052 0.0252843 0.0 
0.999012 0.0178745 0.0 
0.962693 -0.00467215 0.0 
0.961648 -0.00835359 0.0 
0.966154 -0.00412552 0.0 
0.938531 -0.0413922 0.0 
0.925894 0.0581186 0.0 
0.926501 0.0880602 0.0 
1.03761 -0.00206888 0.0 
0.98958 0.0322992 0.0 
1.05971 0.0277343 0.0 
0.999103 0.014771 0.0 
1.07519 -0.00526116 0.0 
1.00468 0.0799761 0.0 
0.94969 0.0133498 0.0 
0.976795 0.0272714 0.0 
1.04991 -0.160588 0.0 
1.10217 0.242417 0.0 
1.12474 0.23058 0.0 
0.93376 -0.0321591 0.0 
0.998998 0.0142943 0.0 
0.951179 0.011006 0.0 
0.996312 0.0138268 0.0 
0.979543 0.00548036 0.0 
1.05234 0.0106288 0.0 
1.04883 -0.171298 0.0 
0.121082 0.0154069 0.0 
0.668691 0.136516 0.0 
0.942954 -0.0425624 0.0 