<VTKFile type="UnstructuredGrid" version="0.1" byte_order="LittleEndian">
  <UnstructuredGrid>
    <Piece NumberOfPoints="9712" NumberOfCells="19403">
      <Points>
        <DataArray type = "Float64" NumberOfComponents="3" format="ascii">
-5 -7 0.0 
15.5 -7 0.0 
15.5 7 0.0 
-5 7 0.0 
-1.6546 1.77742 0.0 
-2.13867 1.86504 0.0 
-1.83467 1.79143 0.0 
1.47969 -2.21179 0.0 
1.36003 -2.38618 0.0 
1.4346 -2.45048 0.0 
-2.04214 1.94165 0.0 
-0.20425 1.17338 0.0 
-2.07648 1.81911 0.0 
-2.00827 1.89081 0.0 
-2.05492 1.98872 0.0 
0.192693 0.536219 0.0 
0.154285 1.75648 0.0 
1.1379 -1.62057 0.0 
-2.11226 1.96977 0.0 
-1.74119 1.75327 0.0 
1.14499 -1.58184 0.0 
-1.94373 2.37229 0.0 
1.50619 -0.664239 0.0 
1.99658 -1.76705 0.0 
1.7229 -1.18344 0.0 
-1.97759 2.52091 0.0 
-0.768046 0.387136 0.0 
1.32657 -1.43969 0.0 
1.90142 0.24821 0.0 
-0.93264 1.51038 0.0 
1.09557 0.967223 0.0 
0.627111 0.757352 0.0 
-2.05707 2.31394 0.0 
1.34027 -2.45136 0.0 
-0.725097 0.397516 0.0 
-0.666094 2.30428 0.0 
-0.73829 -0.279965 0.0 
1.73336 -1.08822 0.0 
1.88466 -1.24421 0.0 
1.50539 -1.23752 0.0 
1.65978 -1.30759 0.0 
-0.0409718 0.542603 0.0 
1.6005 -1.1227 0.0 
1.78439 -0.941488 0.0 
1.86015 -1.54236 0.0 
1.49308 -1.40058 0.0 
2.34892 -1.47149 0.0 
2.13832 -1.3246 0.0 
1.73061 0.751302 0.0 
-0.580328 0.526903 0.0 
1.51013 -2.1595 0.0 
-1.65424 3.45779 0.0 
-1.51397 2.46352 0.0 
1.42773 -2.17867 0.0 
0.304353 0.497878 0.0 
2.24628 0.228293 0.0 
1.51258 -2.27933 0.0 
-1.60346 3.44299 0.0 
-1.71408 2.36227 0.0 
2.17421 0.530405 0.0 
2.42 0.316451 0.0 
-1.63642 3.31911 0.0 
2.53942 -0.995036 0.0 
0.750003 0.810439 0.0 
2.04736 0.40918 0.0 
1.19615 -1.50641 0.0 
2.13474 0.494063 0.0 
0.547924 0.306722 0.0 
-0.2059 0.361394 0.0 
2.2127 0.547693 0.0 
1.41442 -0.597105 0.0 
1.52233 -1.46252 0.0 
-1.84114 2.53924 0.0 
-5 -2.53894 0.0 
2.32127 0.371156 0.0 
-1.69186 3.33379 0.0 
-0.964779 0.566136 0.0 
-1.81311 2.48387 0.0 
-1.78557 3.38304 0.0 
1.48278 0.914136 0.0 
2.51531 -1.89689 0.0 
1.20982 -0.330514 0.0 
0.408434 0.319657 0.0 
0.95023 0.60993 0.0 
-0.752349 0.440796 0.0 
-0.998248 0.564019 0.0 
-1.73165 3.36299 0.0 
1.24353 -1.49063 0.0 
0.942095 0.817189 0.0 
-1.77816 2.47096 0.0 
2.48183 -1.95479 0.0 
1.33574 -1.77854 0.0 
0.823335 1.12085 0.0 
-0.36308 0.598468 0.0 
0.745466 0.783414 0.0 
-1.88344 2.8521 0.0 
-1.79794 3.52221 0.0 
3.0087 0.272815 0.0 
-1.81486 2.66014 0.0 
0.375911 -0.403668 0.0 
-0.68323 0.487288 0.0 
-0.34187 -0.274923 0.0 
-0.293875 -0.201368 0.0 
1.61018 -1.767 0.0 
-0.448275 -0.347267 0.0 
-1.08687 0.352015 0.0 
1.29257 -1.76345 0.0 
1.67658 -1.49551 0.0 
1.19193 0.533009 0.0 
1.21582 -1.91654 0.0 
-0.36438 -0.346225 0.0 
-0.92534 0.330346 0.0 
2.3836 0.287756 0.0 
1.68841 0.639887 0.0 
1.59001 -1.89458 0.0 
1.14818 -1.92143 0.0 
1.28996 -2.19426 0.0 
1.37603 -1.8763 0.0 
1.23834 -2.09141 0.0 
1.11702 -2.06287 0.0 
0.691829 0.463808 0.0 
1.46523 -2.03459 0.0 
-0.123547 0.424486 0.0 
-1.3311 2.12174 0.0 
1.08169 -1.90074 0.0 
1.87975 -2.15971 0.0 
1.10131 -1.78593 0.0 
1.13722 0.534683 0.0 
1.42465 -1.59031 0.0 
-1.45435 2.47344 0.0 
1.41998 -1.98207 0.0 
0.463917 1.8787 0.0 
-1.72896 2.89571 0.0 
1.12419 -1.84975 0.0 
1.59054 -1.20634 0.0 
0.46124 0.621002 0.0 
0.806438 -1.00204 0.0 
2.1804 0.349761 0.0 
2.21142 -1.6418 0.0 
1.10152 -0.274558 0.0 
2.23388 0.387302 0.0 
0.137769 0.567007 0.0 
1.88736 0.267391 0.0 
1.26821 -1.94267 0.0 
0.21033 -0.605707 0.0 
2.61094 -1.50046 0.0 
0.819837 0.743337 0.0 
-1.4303 2.07799 0.0 
1.82013 0.322126 0.0 
-1.47649 2.2099 0.0 
1.15745 -0.274223 0.0 
-1.81198 2.24994 0.0 
2.34337 -1.67775 0.0 
-1.13329 1.37877 0.0 
-0.828215 1.05292 0.0 
2.46752 -1.53452 0.0 
-1.69915 2.18529 0.0 
-0.404416 -0.286271 0.0 
-1.23501 1.31766 0.0 
2.11757 -1.50659 0.0 
-1.08535 1.28274 0.0 
2.58548 -1.70783 0.0 
0.24729 -0.572345 0.0 
-1.66963 2.25319 0.0 
1.58322 -1.62308 0.0 
-0.367923 -0.306026 0.0 
0.391521 1.44485 0.0 
1.88977 -2.46319 0.0 
1.5943 -1.53613 0.0 
-0.357143 -0.23651 0.0 
0.82621 0.80563 0.0 
-1.59261 2.31884 0.0 
-0.47244 -0.307516 0.0 
-0.40334 -0.326688 0.0 
-2.00063 2.11543 0.0 
1.55514 -1.95078 0.0 
-1.40431 2.26352 0.0 
-0.0265928 0.573714 0.0 
1.17093 1.10579 0.0 
-1.77907 2.22111 0.0 
0.682788 0.329642 0.0 
-0.54475 2.15572 0.0 
-0.288592 0.289433 0.0 
-1.43199 2.16349 0.0 
-1.45029 2.25134 0.0 
1.5535 -1.79992 0.0 
-1.06406 1.08381 0.0 
1.72954 1.44966 0.0 
0.582806 0.515814 0.0 
0.582876 -0.679913 0.0 
1.32351 -0.355916 0.0 
-0.47505 0.577092 0.0 
-0.371167 0.227715 0.0 
1.52235 -1.8529 0.0 
-0.429822 -0.244811 0.0 
-0.53237 -0.24648 0.0 
-0.393983 -0.210364 0.0 
0.652895 0.317361 0.0 
1.55812 -1.70765 0.0 
1.63021 0.325622 0.0 
0.442731 0.358729 0.0 
1.22925 -1.85192 0.0 
1.43517 -1.79082 0.0 
1.39317 -1.6984 0.0 
1.62965 0.295952 0.0 
0.905462 0.793465 0.0 
1.04036 -1.64811 0.0 
2.1131 -1.72466 0.0 
-0.743911 0.369492 0.0 
1.14427 -1.99314 0.0 
1.26033 -2.0209 0.0 
-1.70955 2.07308 0.0 
0.910023 -1.62976 0.0 
-0.313059 -0.0954838 0.0 
-1.77334 2.3988 0.0 
-0.311958 -0.24042 0.0 
2.53315 0.325608 0.0 
-0.273728 -0.226719 0.0 
-0.646401 0.379627 0.0 
1.52426 0.616074 0.0 
2.21703 -1.79499 0.0 
2.71108 0.312216 0.0 
0.759924 1.093 0.0 
-1.69271 2.12368 0.0 
0.255794 0.540969 0.0 
0.0534699 0.562158 0.0 
-1.5679 2.22408 0.0 
-1.66906 2.45165 0.0 
-1.51895 2.09449 0.0 
2.16948 0.408238 0.0 
-0.818806 0.680638 0.0 
-0.826868 0.642087 0.0 
0.519855 0.276992 0.0 
-0.716682 1.18602 0.0 
-0.649974 -0.148775 0.0 
0.457368 0.256619 0.0 
0.517407 0.248194 0.0 
0.327129 0.39802 0.0 
0.533249 -0.878832 0.0 
-0.870735 0.634904 0.0 
1.19219 1.07557 0.0 
2.35922 0.366028 0.0 
-1.66911 3.66723 0.0 
-0.857603 1.54934 0.0 
-0.379189 2.30131 0.0 
-0.941007 1.36523 0.0 
-1.58662 2.49682 0.0 
-0.545297 0.352587 0.0 
0.327944 -0.744683 0.0 
-0.312756 0.524741 0.0 
-0.107843 0.506233 0.0 
2.13378 -2.36584 0.0 
1.52689 0.686953 0.0 
-0.119983 0.327909 0.0 
1.02161 -1.53072 0.0 
1.51507 0.39695 0.0 
-0.674484 1.02605 0.0 
-0.564724 -0.148435 0.0 
0.409388 0.290913 0.0 
0.252349 0.30842 0.0 
-1.09282 1.45998 0.0 
1.45674 -1.54484 0.0 
-0.266777 0.782169 0.0 
0.91327 -0.874389 0.0 
1.01208 1.13309 0.0 
-0.897136 1.35063 0.0 
-0.846484 0.489353 0.0 
1.47563 0.663768 0.0 
-1.22282 2.05021 0.0 
0.348906 0.416714 0.0 
1.41913 0.964648 0.0 
0.933289 -0.839038 0.0 
-1.85066 1.40221 0.0 
0.142477 1.99435 0.0 
-0.717809 0.341194 0.0 
-2.21177 1.41584 0.0 
0.396571 0.350929 0.0 
1.25171 -1.60721 0.0 
0.736798 0.393502 0.0 
-0.661427 0.19031 0.0 
2.18751 -2.32769 0.0 
-1.00908 1.6747 0.0 
2.21416 -2.07269 0.0 
-0.779194 0.642011 0.0 
-1.02312 1.3939 0.0 
2.08809 -2.24876 0.0 
-5 -4.48794 0.0 
1.61792 -1.46215 0.0 
-0.974627 1.38947 0.0 
1.81166 -2.48446 0.0 
-1.03635 1.47474 0.0 
0.869004 -1.74424 0.0 
0.956579 -1.78598 0.0 
1.07495 0.540689 0.0 
-1.08005 1.37763 0.0 
0.914755 -0.803058 0.0 
0.611759 -0.305322 0.0 
1.70043 -1.41356 0.0 
0.75708 -0.631542 0.0 
1.21215 1.01979 0.0 
-0.586902 0.440014 0.0 
1.9251 -2.56336 0.0 
-1.58261 1.91091 0.0 
-0.746541 1.26087 0.0 
-1.49915 1.13657 0.0 
-1.46675 0.971536 0.0 
-1.05881 0.930935 0.0 
0.71826 0.415078 0.0 
-0.701697 0.526982 0.0 
-1.56194 2.05157 0.0 
1.15988 0.991244 0.0 
1.38676 0.949615 0.0 
-1.61697 2.02689 0.0 
1.13748 -0.357331 0.0 
-1.8456 2.04561 0.0 
0.253686 -0.756334 0.0 
-1.53603 1.86509 0.0 
-1.43465 0.924137 0.0 
-1.00273 1.27416 0.0 
-1.03063 1.5132 0.0 
-1.32483 1.94769 0.0 
-0.965552 1.61445 0.0 
-0.239859 -0.245939 0.0 
-5 3.01776 0.0 
-5 -0.248741 0.0 
0.517491 1.87079 0.0 
-1.18776 1.8875 0.0 
2.27458 0.36201 0.0 
1.9794 0.331487 0.0 
0.503086 0.510306 0.0 
1.26387 -0.370702 0.0 
1.24483 0.550197 0.0 
1.12871 0.979556 0.0 
-1.48659 1.83259 0.0 
1.0672 0.958366 0.0 
-1.16856 1.61214 0.0 
-0.218637 -0.230696 0.0 
-5 1.81431 0.0 
1.37014 1.04658 0.0 
0.0950623 0.557621 0.0 
-1.23613 1.67303 0.0 
0.953731 -0.709843 0.0 
2.07568 -1.85385 0.0 
2.10836 -1.82014 0.0 
-0.994952 1.33552 0.0 
-1.86986 1.52312 0.0 
0.515812 0.447542 0.0 
0.842446 0.992035 0.0 
-1.42353 1.8223 0.0 
2.091 0.354014 0.0 
-0.937663 0.401428 0.0 
-1.69305 1.41997 0.0 
-1.82465 1.55127 0.0 
2.15192 0.384657 0.0 
-1.17972 1.37998 0.0 
-0.718866 -0.0130647 0.0 
-0.927867 0.290435 0.0 
1.56509 0.300406 0.0 
-5 -3.04052 0.0 
9.98027 -7 0.0 
0.176009 0.694641 0.0 
0.597997 -0.559941 0.0 
-0.546583 0.4849 0.0 
0.602022 -0.657834 0.0 
2.17737 0.379672 0.0 
1.89809 0.287017 0.0 
-1.58883 1.35796 0.0 
-1.2284 1.37063 0.0 
-1.43937 1.35342 0.0 
-1.59664 1.47263 0.0 
0.577431 -0.368705 0.0 
1.5263 -1.51093 0.0 
0.479666 0.796509 0.0 
0.894995 1.01463 0.0 
2.22312 0.363016 0.0 
-0.320562 0.726481 0.0 
-1.30188 2.41386 0.0 
0.43802 0.434693 0.0 
-0.761697 0.762024 0.0 
1.45688 -1.49591 0.0 
-0.65072 0.676835 0.0 
1.6097 -1.41509 0.0 
2.25768 0.399237 0.0 
1.85518 0.299709 0.0 
2.14618 0.290757 0.0 
2.25222 0.371677 0.0 
-1.93063 2.91367 0.0 
1.52717 0.319618 0.0 
1.67964 -1.62237 0.0 
1.35962 -0.439169 0.0 
1.63007 -1.54335 0.0 
-5 -0.764504 0.0 
-1.61377 2.62271 0.0 
1.73865 -1.57725 0.0 
-0.908306 1.23669 0.0 
1.60766 0.330292 0.0 
1.82509 -1.63054 0.0 
1.90521 0.312457 0.0 
1.98719 -1.6488 0.0 
-0.528791 0.39225 0.0 
1.94978 -2.39003 0.0 
-0.472559 0.718465 0.0 
-1.28058 2.26572 0.0 
0.881581 -0.556282 0.0 
2.26369 0.42542 0.0 
0.917309 -1.69962 0.0 
0.853954 -1.60945 0.0 
1.30086 -0.404316 0.0 
1.99565 -2.46852 0.0 
1.49445 -1.47573 0.0 
1.68285 0.863315 0.0 
2.03074 -2.37549 0.0 
2.52279 -0.506167 0.0 
2.56049 -1.76899 0.0 
-1.52889 2.56597 0.0 
2.81136 -0.570221 0.0 
1.3688 -1.46095 0.0 
1.29524 -0.373946 0.0 
-0.350504 0.671928 0.0 
-0.590282 0.564035 0.0 
-0.054366 2.16706 0.0 
1.50819 1.22548 0.0 
-0.548222 0.453941 0.0 
2.19936 -2.5207 0.0 
12.2704 -7 0.0 
1.6811 -1.36761 0.0 
-0.449261 0.559535 0.0 
0.537017 -0.527614 0.0 
-0.00733391 0.553304 0.0 
0.494109 -0.356396 0.0 
-0.7939 0.0827441 0.0 
0.39888 0.467333 0.0 
-1.04288 1.34095 0.0 
0.605019 1.02824 0.0 
0.847559 0.374727 0.0 
1.00336 0.618307 0.0 
2.1955 0.399186 0.0 
0.656973 0.401158 0.0 
-0.998431 2.73564 0.0 
[...]
<PointData>
  <DataArray type = "Float64" Name="VitesseP1" NumberOfComponents="3" format="ascii">
1 0 0.0 
1.08959 0 0.0 
1.03161 0 0.0 
1 0 0.0 
0.99459 0.0162704 0.0 
0.996896 0.011493 0.0 
0.995474 0.0140327 0.0 
1.04196 -0.00460272 0.0 
1.04373 -0.00571722 0.0 
1.04885 -0.00537826 0.0 
0.997746 0.0124373 0.0 
0.985825 0.0736293 0.0 
0.996588 0.0118362 0.0 
0.996805 0.0126366 0.0 
0.998914 0.0124362 0.0 
0.991035 0.218756 0.0 
1.01917 0.0553362 0.0 
1.0494 -0.0266136 0.0 
0.998834 0.0118467 0.0 
0.995003 0.0149815 0.0 
1.05471 -0.0275682 0.0 
0.998949 0.0137573 0.0 
1.15952 -0.0266036 0.0 
1.04631 0.0108768 0.0 
1.06321 -0.00274308 0.0 
0.998939 0.0133136 0.0 
0.944117 0.00908497 0.0 
1.06305 -0.0226805 0.0 
0.0653557 0.00397316 0.0 
0.988582 0.032133 0.0 
1.14095 0.0695196 0.0 
1.10844 0.143321 0.0 
0.998919 0.0127456 0.0 
1.03364 -0.018805 0.0 
0.940939 0.0126854 0.0 
1.00578 0.0312785 0.0 
0.936349 -0.0513265 0.0 
1.08429 -0.00251621 0.0 
1.05584 0.00784842 0.0 
1.05356 -0.0163186 0.0 
1.05633 -0.00584294 0.0 
0.925948 0.15217 0.0 
1.07476 -0.0118306 0.0 
1.12593 0.000956866 0.0 
1.06813 0.00596838 0.0 
1.06338 -0.014522 0.0 
1.06282 0.0326918 0.0 
1.0566 0.0230991 0.0 
1.19847 0.029337 0.0 
0.939031 0.0361161 0.0 
1.04075 -0.00457868 0.0 
1.00258 0.0126077 0.0 
0.999995 0.0179894 0.0 
1.04018 -0.006175 0.0 
1.0363 0.243825 0.0 
0.030893 0.0122749 0.0 
1.04365 -0.0035406 0.0 
1.00281 0.0130071 0.0 
0.999205 0.0160634 0.0 
1.1641 -0.00500359 0.0 
0.131628 0.000794393 0.0 
1.00255 0.0132703 0.0 
1.09449 0.0589191 0.0 
1.12127 0.121955 0.0 
0.537864 0.00675632 0.0 
1.06077 -0.0275073 0.0 
1.06582 -0.00132621 0.0 
0.552367 0.134445 0.0 
0.861997 0.0858475 0.0 
1.18707 -0.0104815 0.0 
1.20235 -0.0384958 0.0 
1.06692 -0.0121676 0.0 
0.999178 0.0144732 0.0 
1 0 0.0 
0.300102 -0.00927038 0.0 
1.0023 0.0128506 0.0 
0.967822 0.0110175 0.0 
0.999193 0.0148437 0.0 
1.00188 0.0120355 0.0 
1.17157 0.0381604 0.0 
1.03795 0.0210461 0.0 
0.748674 -0.0411808 0.0 
0.946073 0.263271 0.0 
1.17146 0.116225 0.0 
0.945751 0.0146491 0.0 
0.96965 0.00930578 0.0 
1.0022 0.0124658 0.0 
1.06214 -0.0257362 0.0 
1.14183 0.0988321 0.0 
0.999262 0.0152011 0.0 
1.0449 0.0259954 0.0 
1.04228 -0.0152043 0.0 
1.09566 0.0809671 0.0 
0.934853 0.0706166 0.0 
1.12359 0.126073 0.0 
1.00007 0.0131991 0.0 
1.0023 0.0112534 0.0 
0.0335179 -0.166879 0.0 
0.999403 0.0143862 0.0 
1.1898 -0.23474 0.0 
0.943612 0.023455 0.0 
0.918061 -0.0883605 0.0 
0.914866 -0.0744314 0.0 
1.04655 -0.00479982 0.0 
0.923669 -0.0782999 0.0 
0.966895 -0.00784083 0.0 
1.04198 -0.0171379 0.0 
1.06865 -0.00366574 0.0 
1.19303 0.0843187 0.0 
1.0376 -0.0167045 0.0 
0.919333 -0.0886515 0.0 
0.954507 -0.00331748 0.0 
0.0784935 0.0114404 0.0 
1.2018 0.0371043 0.0 
1.04359 -0.00463962 0.0 
1.03606 -0.0185192 0.0 
1.03782 -0.00881575 0.0 
1.04141 -0.0121629 0.0 
1.03521 -0.0125942 0.0 
1.03234 -0.0175341 0.0 
1.16167 0.185068 0.0 
1.03882 -0.00710405 0.0 
0.876449 0.126441 0.0 
0.999164 0.021592 0.0 
1.03497 -0.021025 0.0 
1.04101 0.00441863 0.0 
1.03721 -0.0233732 0.0 
1.19298 0.0916982 0.0 
1.06084 -0.0151354 0.0 
1.00026 0.0186275 0.0 
1.03885 -0.00917962 0.0 
1.02849 0.0489687 0.0 
1.00089 0.0142488 0.0 
1.0368 -0.0210591 0.0 
1.05822 -0.0112748 0.0 
1.08608 0.190032 0.0 
1.06775 -0.0737769 0.0 
0.144101 0.0110118 0.0 
1.05391 0.0215912 0.0 
0.454619 -0.0396279 0.0 
0.396725 -0.00333387 0.0 
0.976521 0.19718 0.0 
0.069806 -0.00279596 0.0 
1.03764 -0.0145579 0.0 
1.02959 -0.160837 0.0 
1.05069 0.0476181 0.0 
1.13773 0.121888 0.0 
0.998838 0.0201689 0.0 
0.07866 0.00838361 0.0 
0.999061 0.0192153 0.0 
0.40779 -0.0176016 0.0 
0.998851 0.0151433 0.0 
1.04559 0.0260343 0.0 
0.984991 0.025244 0.0 
0.973149 0.0350804 0.0 
1.05586 0.0368815 0.0 
0.998674 0.0164275 0.0 
0.922086 -0.0795059 0.0 
0.984001 0.0216032 0.0 
1.06694 0.019537 0.0 
0.981379 0.0260969 0.0 
1.03252 0.0322615 0.0 
1.03885 -0.171325 0.0 
0.998982 0.0167189 0.0 
1.05857 -0.00726131 0.0 
0.919462 -0.0858937 0.0 
1.03325 0.0711443 0.0 
1.04701 -0.00193916 0.0 
1.06733 -0.007614 0.0 
0.915756 -0.0816581 0.0 
1.13116 0.11382 0.0 
0.999323 0.0175133 0.0 
0.926999 -0.0727122 0.0 
0.9215 -0.0826027 0.0 
0.998665 0.013171 0.0 
1.04128 -0.00538732 0.0 
0.999587 0.0200584 0.0 
0.938006 0.152157 0.0 
1.12952 0.051024 0.0 
0.998788 0.0155118 0.0 
0.628477 0.110605 0.0 
1.00631 0.0355128 0.0 
0.862637 0.0457695 0.0 
0.999007 0.0199537 0.0 
0.999382 0.0194641 0.0 
1.04483 -0.00674722 0.0 
0.973692 0.0245375 0.0 
1.07638 -0.0412144 0.0 
1.13982 0.200683 0.0 
1.10763 -0.129454 0.0 
0.8671 -0.0315463 0.0 
0.937637 0.0524161 0.0 
0.874367 0.0167015 0.0 
1.04375 -0.00739978 0.0 
0.923389 -0.0730441 0.0 
0.932578 -0.0625235 0.0 
0.918111 -0.0741709 0.0 
0.576586 0.110832 0.0 
1.04985 -0.00750934 0.0 
0.115979 0.0181144 0.0 
1.0348 0.265495 0.0 
1.03911 -0.0175915 0.0 
1.04367 -0.01135 0.0 
1.04841 -0.0145735 0.0 
0.0946411 0.023785 0.0 
1.14105 0.10546 0.0 
1.04356 -0.0294828 0.0 
1.04724 0.0159959 0.0 
0.940995 0.00891641 0.0 
1.03357 -0.0174262 0.0 
1.03555 -0.0132597 0.0 
0.998771 0.0163143 0.0 
1.04072 -0.0346753 0.0 
0.897872 -0.0653672 0.0 
0.999173 0.0153814 0.0 
0.908961 -0.0856823 0.0 
0.203947 -0.0110089 0.0 
0.887077 -0.0838616 0.0 
0.932137 0.0164539 0.0 
1.19893 0.0492758 0.0 
1.04328 0.0191936 0.0 
0.287083 -0.0323249 0.0 
1.09505 0.0885309 0.0 
0.998607 0.0165186 0.0 
1.01767 0.223737 0.0 
0.950466 0.177898 0.0 
0.998986 0.0179932 0.0 
0.999482 0.0163397 0.0 
0.998807 0.0188416 0.0 
0.539447 -0.000919385 0.0 
0.96734 0.0255866 0.0 
0.965035 0.0230719 0.0 
0.411482 0.135802 0.0 
0.97611 0.0416243 0.0 
0.939673 -0.0443048 0.0 
0.298986 0.101241 0.0 
0.373355 0.184589 0.0 
1.0614 0.297389 0.0 
1.06813 -0.103316 0.0 
0.966818 0.0199754 0.0 
1.137 0.0513824 0.0 
0.288895 -0.00855116 0.0 
1.00048 0.0119255 0.0 
0.990191 0.0345045 0.0 
1.01003 0.0360601 0.0 
0.983544 0.0317796 0.0 
0.999819 0.0170799 0.0 
0.918198 0.0217074 0.0 
1.05758 -0.131843 0.0 
0.918285 0.0761689 0.0 
0.907838 0.132492 0.0 
1.04706 0.0134162 0.0 
1.19039 0.0460383 0.0 
0.829046 0.117056 0.0 
1.05526 -0.0342442 0.0 
0.535973 0.0227158 0.0 
0.975453 0.0442144 0.0 
0.932014 -0.050198 0.0 
0.698717 0.194576 0.0 
0.897414 0.339213 0.0 
0.987113 0.0269375 0.0 
1.06516 -0.0142354 0.0 
0.966583 0.0869638 0.0 
1.11209 -0.077221 0.0 
1.11012 0.0639287 0.0 
0.982904 0.0334463 0.0 
0.95591 0.0124716 0.0 
1.1908 0.0511702 0.0 
0.999224 0.0236514 0.0 
1.07574 0.284505 0.0 
1.16488 0.0397013 0.0 
1.12249 -0.0782535 0.0 
0.994028 0.0105473 0.0 
1.01793 0.0475006 0.0 
0.936991 0.00779667 0.0 
0.997207 0.0088186 0.0 
1.01609 0.284775 0.0 
1.05461 -0.0222906 0.0 
0.99541 0.151742 0.0 
0.924633 -0.00633942 0.0 
1.03755 0.0314192 0.0 
0.992735 0.0294785 0.0 
1.03744 0.0161892 0.0 
0.962425 0.0262714 0.0 
0.984805 0.0289524 0.0 
1.03742 0.00753245 0.0 
1 0 0.0 
1.06798 -0.00701488 0.0 
0.984513 0.0306209 0.0 
1.04508 -0.00133893 0.0 
0.987399 0.0287497 0.0 
1.03128 -0.0318031 0.0 
1.03343 -0.0280071 0.0 
1.19065 0.100798 0.0 
0.984608 0.0269532 0.0 
1.12808 -0.0828679 0.0 
0.911304 -0.146964 0.0 
1.06631 -0.00285111 0.0 
1.12629 -0.115371 0.0 
1.14547 0.0538956 0.0 
0.930832 0.0277413 0.0 
1.03679 0.00134319 0.0 
0.995947 0.0177454 0.0 
0.979413 0.0400016 0.0 
0.98391 0.0115973 0.0 
0.995441 0.0108324 0.0 
0.989901 0.0218256 0.0 
1.08619 0.168927 0.0 
0.94816 0.0250157 0.0 
0.998756 0.0182056 0.0 
1.14403 0.0612124 0.0 
1.16357 0.043261 0.0 
0.998489 0.0174362 0.0 
0.927795 -0.0579503 0.0 
0.999115 0.0146695 0.0 
1.04178 -0.128589 0.0 
0.995039 0.0183551 0.0 
1.00017 0.0114886 0.0 
0.98049 0.0290139 0.0 
0.988665 0.0290008 0.0 
0.996599 0.0220105 0.0 
0.991773 0.0308831 0.0 
0.881398 -0.105662 0.0 
1 0 0.0 
1 0 0.0 
1.03032 0.0483209 0.0 
0.995265 0.0247171 0.0 
0.233121 -0.00256606 0.0 
0.0563451 0.01698 0.0 
1.11542 0.217887 0.0 
0.956414 -0.0462997 0.0 
1.19744 0.07829 0.0 
1.14257 0.0652246 0.0 
0.994464 0.0190796 0.0 
1.13941 0.073122 0.0 
0.991723 0.0252599 0.0 
0.947479 -0.16398 0.0 
1 0 0.0 
1.15578 0.0371349 0.0 
0.960718 0.190513 0.0 
0.992703 0.0237466 0.0 
1.14247 -0.0858868 0.0 
1.04352 0.0132039 0.0 
1.04379 0.0148369 0.0 
0.982623 0.0296952 0.0 
0.995315 0.0117994 0.0 
1.12647 0.233043 0.0 
1.11686 0.0922936 0.0 
0.994213 0.0201534 0.0 
0.152369 0.0109137 0.0 
0.958184 0.00150416 0.0 
0.992035 0.0126244 0.0 
0.995242 0.0125228 0.0 
0.358493 0.00425937 0.0 
0.985351 0.0238376 0.0 
0.948126 -0.0291412 0.0 
0.953299 -0.006549 0.0 
0.100952 -0.009055 0.0 
1 0 0.0 
1.0698 0 0.0 
1.0068 0.166883 0.0 
1.11858 -0.146678 0.0 
0.931562 0.0362558 0.0 
1.1115 -0.130762 0.0 
0.327567 0.00365447 0.0 
0.081042 0.000190957 0.0 
0.98955 0.013371 0.0 
0.985494 0.0223335 0.0 
0.987321 0.0165522 0.0 
0.991592 0.0148139 0.0 
1.10636 -0.173886 0.0 
1.06706 -0.0112897 0.0 
1.0785 0.148056 0.0 
1.1198 0.0852868 0.0 
0.227867 0.00326491 0.0 
0.956149 0.0797743 0.0 
1.00079 0.020765 0.0 
1.10952 0.25786 0.0 
0.971971 0.033061 0.0 
1.06629 -0.0151317 0.0 
0.958937 0.0383681 0.0 
1.06584 -0.00797548 0.0 
0.48924 -0.0083448 0.0 
0.0822962 0.0116719 0.0 
0.0628684 0.0201102 0.0 
0.291146 -0.000503284 0.0 
0.999848 0.0126378 0.0 
0.0895091 0.00175689 0.0 
1.05924 -0.00282342 0.0 
1.15805 -0.0436042 0.0 
1.0673 -0.00577525 0.0 
1 0 0.0 
0.999967 0.0163519 0.0 
1.06526 -9.43313e-05 0.0 
0.978838 0.0326248 0.0 
0.10258 0.00887872 0.0 
1.05892 0.00403731 0.0 
0.0787299 0.00324901 0.0 
1.05612 0.0114138 0.0 
0.919881 0.0284055 0.0 
1.04213 -0.00011063 0.0 
0.956901 0.0588448 0.0 
1.0001 0.0217993 0.0 
1.19459 -0.110903 0.0 
0.679033 -0.0131875 0.0 
1.03538 -0.0318256 0.0 
1.04119 -0.0372095 0.0 
1.06635 -0.045562 0.0 
1.05483 0.00963558 0.0 
1.06681 -0.0134837 0.0 
1.18558 0.0226386 0.0 
1.04181 0.0133283 0.0 
1.24201 0.0830012 0.0 
1.0345 0.0274518 0.0 
1.00018 0.0174281 0.0 
1.17408 0.105383 0.0 
1.06431 -0.0202474 0.0 
0.969345 -0.0464107 0.0 
0.947229 0.0746921 0.0 
0.943813 0.0377955 0.0 
1.0147 0.0433987 0.0 
1.13558 0.00136788 0.0 
0.928465 0.0330899 0.0 
1.00655 -0.00564733 0.0 
1.06688 0 0.0 
1.06266 -0.00417164 0.0 
0.933345 0.0548961 0.0 
1.13829 -0.164213 0.0 
0.934775 0.161106 0.0 
1.10096 -0.195239 0.0 
0.952266 -0.0198491 0.0 
1.0862 0.251736 0.0 
0.983105 0.0279825 0.0 
1.08634 0.10596 0.0 
0.783331 0.101331 0.0 
1.17394 0.107384 0.0 
0.476227 -0.00214671 0.0 
1.07275 0.186998 0.0 
1.00456 0.0217759 0.0 
1.05584 0.0141907 0.0 
1.04263 0.00766559 0.0 
1.04708 -0.00184684 0.0 
1.04566 -0.00077078 0.0 
0.0676039 0.0222635 0.0 
1.0416 0.00113254 0.0 
-0.0252969 0.00966791 0.0 
1.06837 -0.0444426 0.0 
1.00424 0.0359424 0.0 
1.04418 0.00828196 0.0 
1 0 0.0 
0.983096 0.0268038 0.0 
1.19126 0.0967475 0.0 
0.782383 -0.0396904 0.0 
0.999812 0.0157798 0.0 
0.99166 0.0397701 0.0 
1.04938 0.009087 0.0 
1.05423 0.00431379 0.0 
0.938893 0.189761 0.0 
0.775252 0.13063 0.0 
1.00465 0.0186722 0.0 
1.1292 0.125335 0.0 
0.998604 0.244092 0.0 
0.999312 0.0123218 0.0 
0.985856 0.0296513 0.0 
1.05069 0.000249833 0.0 
0.937123 0.125368 0.0 
0.176857 0.0218845 0.0 
1.04969 0.00235742 0.0 
0.171934 0.099116 0.0 
1.04991 -0.00182844 0.0 
1.02057 -0.0166095 0.0 
1.01607 0.0488248 0.0 
1.13082 -0.0504173 0.0 
1.04653 0.00131304 0.0 
0.956812 -0.00593776 0.0 
0.32546 0.0133937 0.0 
1.06303 -0.0235999 0.0 
0.946306 -0.00111695 0.0 
1.00004 0.0154579 0.0 
1.06054 -0.0284847 0.0 
0.941292 0.0663506 0.0 
1.19721 -0.0461414 0.0 
0.275281 -0.00655301 0.0 
0.614393 -0.0162516 0.0 
0.940797 -0.00431643 0.0 
0.963354 0.273032 0.0 
0.249282 0.0478024 0.0 
0.995323 0.316498 0.0 
0.938448 -0.0079927 0.0 
1.07834 -0.0437132 0.0 
0.696676 0.0030998 0.0 
0.354881 0.116209 0.0 
1.10145 0.0717681 0.0 
0.998843 0.0124566 0.0 
0.546075 0.00550264 0.0 
0.160685 0.0484442 0.0 
0.91401 -0.0432045 0.0 
0.770026 -0.0252303 0.0 
1.03069 0.0441011 0.0 
0.998858 0.0120668 0.0 
1.02544 -0.0985035 0.0 
1.11278 -0.0350991 0.0 
1.17218 0.0286491 0.0 
0.081915 0.00542445 0.0 
0.935854 -0.0575672 0.0 
1.03617 0.0420565 0.0 
1.06685 -0.00913161 0.0 
0.937763 -0.0087274 0.0 
0.0690222 0.0152915 0.0 
0.998909 0.0130077 0.0 
1.17068 0.0323377 0.0 
1.05893 -0.0277204 0.0 
0.962718 0.216854 0.0 
1.05401 0.0127897 0.0 
1.06835 -0.000872067 0.0 
1.0684 0.00387369 0.0 
0.954167 0.0381151 0.0 
1.06088 -0.0255152 0.0 
0.999063 0.0142086 0.0 
0.951962 0.00741981 0.0 
1.13666 -0.0340464 0.0 
1.05411 0.0190454 0.0 
0.98928 0.00769421 0.0 
0.953129 0.015731 0.0 
0.999113 0.0143933 0.0 
1.05772 0.00405614 0.0 
1.04128 -0.00573395 0.0 
1.06069 -0.0227805 0.0 
0.990453 0.00934784 0.0 
1.02083 0.0445773 0.0 
0.998909 0.0136791 0.0 
1.04471 -0.0272981 0.0 
1.0654 0.0179563 0.0 
0.0539278 0.0204243 0.0 
0.0558469 0.0150318 0.0 
1.0687 0.0139348 0.0 
0.904809 -0.0562667 0.0 
0.885768 -0.048656 0.0 
0.87461 0.120658 0.0 
0.999627 0.0142996 0.0 
0.99897 0.0143253 0.0 
0.962628 -0.0129415 0.0 
0.964791 -0.00166722 0.0 
1.03429 0.023831 0.0 
0.962649 0.235694 0.0 
1.06606 0.153326 0.0 
1.02967 -0.0448484 0.0 
0.0666611 0.00413061 0.0 
1.1607 0.0275593 0.0 
1.09337 0.137924 0.0 
0.998797 0.0138473 0.0 
1.01467 0.0344644 0.0 
1.11353 -0.00643945 0.0 
0.98265 0.0214436 0.0 
0.934043 0.0469994 0.0 
1.0305 -0.0298522 0.0 
0.973071 0.0379871 0.0 
0.940519 0.10977 0.0 
0.933667 0.0595703 0.0 
0.821936 -0.0379227 0.0 
0.962652 0.00748057 0.0 
0.78551 -0.0487737 0.0 
1.00134 0.0185861 0.0 
1.03026 0.0448798 0.0 
0.953581 -0.00995091 0.0 
0.961355 -0.00070927 0.0 
0.922185 0.0347027 0.0 
1.09888 0.250056 0.0 
0.972158 0.00644151 0.0 
0.939809 0.292273 0.0 
0.945032 0.0333046 0.0 
0.974096 0.22727 0.0 
0.847477 0.286307 0.0 
0.995168 0.00787602 0.0 
1.00097 0 0.0 
0.998862 0.0124938 0.0 
0.97713 0.0018744 0.0 
0.888997 0.15439 0.0 
0.128945 0.00872944 0.0 
1.01084 0.0447359 0.0 
0.980633 0.00752384 0.0 
0.999434 0.0128996 0.0 
0.915196 -0.0717285 0.0 
0.916188 0.0334829 0.0 
1.19483 -0.0346381 0.0 
0.998783 0.0127557 0.0 
0.948339 0.077205 0.0 
0.772665 -0.0729378 0.0 
1.03325 -0.0240463 0.0 
0.935713 0.0643259 0.0 
0.995306 0.016675 0.0 
0.944081 0.0280336 0.0 
0.991006 0.0205941 0.0 
0.0823239 0.0163871 0.0 
0.764082 -0.0639083 0.0 
1.04334 -0.00385691 0.0 
1.15263 0.0826099 0.0 
1.14762 -0.0321187 0.0 
0.997706 0.0110738 0.0 
0.982055 0.019114 0.0 
1.00061 0.202926 0.0 
1.1129 0.159294 0.0 
0.577493 0.0956295 0.0 
0.95018 0.189979 0.0 
0.981421 0.0194825 0.0 
0.29019 -0.0191343 0.0 
0.982417 0.0224465 0.0 
0.997309 0.0131381 0.0 
1.00058 0.0201138 0.0 
0.232284 -0.0159616 0.0 
0.190379 -0.00570133 0.0 
0.981566 0.0308081 0.0 
0.333761 0.0580946 0.0 
1.19015 0.0926896 0.0 
1.01007 0.0441766 0.0 
0.980707 0.0330921 0.0 
0.999891 0.0200289 0.0 
0.977768 0.0116422 0.0 
0.92978 0.0693775 0.0 
0.976376 0.0262822 0.0 
0.850994 0.285619 0.0 
0.492502 -0.0289183 0.0 
0.217035 -0.00398193 0.0 
0.967987 0.0139379 0.0 
0.974625 0.0125558 0.0 
1.05312 0.205936 0.0 
0.297908 -0.0230093 0.0 
0.939526 0.0214525 0.0 
1.03369 -0.0392156 0.0 
0.981851 0.246701 0.0 
0.999464 0.0139306 0.0 
0.921969 0.0825103 0.0 
0.972139 0.0316652 0.0 
0.929359 0.144112 0.0 
0.954036 0.157049 0.0 
1.00759 0.256171 0.0 
0.713517 -0.0277961 0.0 
0.936891 -0.0522815 0.0 
1.11447 0.0581392 0.0 
0.46483 0.0937162 0.0 
0.925936 -0.0595876 0.0 
0.094234 0.0101136 0.0 
0.898582 -0.0125517 0.0 
0.743164 0.136209 0.0 
0.914558 -0.0663096 0.0 
0.921699 -0.0560439 0.0 
0.609951 0.165177 0.0 
1.04623 0.00624258 0.0 
0.94001 0.174252 0.0 
0.879169 -0.00457146 0.0 
0.927853 -0.0536401 0.0 
1.04025 -0.00636778 0.0 
0.336433 0.041455 0.0 
1.0371 -0.00957835 0.0 
0.865555 0.00778989 0.0 
0.89356 0.217684 0.0 
1.04821 -0.00188983 0.0 
0.906021 -0.0879969 0.0 
0.916744 0.18342 0.0 
0.279375 -0.0231827 0.0 
1.12783 0.0611467 0.0 
1.03021 0.171287 0.0 
0.828993 0.380899 0.0 
1.10081 0.166478 0.0 
1.06175 0.260903 0.0 
0.95385 -0.04143 0.0 
0.736495 -0.0874383 0.0 
0.97745 0.0339421 0.0 
0.515176 0.0620066 0.0 
0.917936 -0.0525071 0.0 
1.04633 0.0641285 0.0 
0.159646 0.00388682 0.0 
1.04254 0.264705 0.0 
1.05824 0.0393468 0.0 
0.878358 0.105916 0.0 
1.00569 0.0222913 0.0 
0.892212 0.0675362 0.0 
0.109476 0.0154144 0.0 
0.852693 0.0769423 0.0 
0.949065 0.0374486 0.0 
0.947043 0.0042518 0.0 
1.17329 -0.039819 0.0 
0.76196 0.335694 0.0 
0.847025 0.0896696 0.0 
1.02787 0.0744308 0.0 
1.08125 -0.0960238 0.0 
0.92061 -0.0467236 0.0 
1.03767 0.27281 0.0 
0.964487 0.0173532 0.0 
0.995603 0.0412148 0.0 
0.909706 0.0776712 0.0 
0.923911 0.113417 0.0 
0.910235 0.0359314 0.0 
1.0099 0.0282372 0.0 
0.919172 0.106703 0.0 
0.916416 0.221591 0.0 
0.999382 0.0130014 0.0 
1.09123 -0.071637 0.0 
0.297092 -0.0257021 0.0 
1.05109 0.25221 0.0 
0.965131 0.203969 0.0 
0.806359 0.15176 0.0 
0.826357 0.03864 0.0 
0.885807 0.0303038 0.0 
1.04042 0.306075 0.0 
0.999762 0.0178108 0.0 
1.12341 0.141754 0.0 
1.03183 0.227557 0.0 
0.885822 -0.0480771 0.0 
0.922548 -0.00158539 0.0 
0.857597 0.15903 0.0 
0.910535 0.021105 0.0 
0.88469 0.0152695 0.0 
0.93191 -0.0459398 0.0 
0.933183 0.208065 0.0 
0.995715 0.0311135 0.0 
0.999794 0.0152292 0.0 
0.0912924 0.0179204 0.0 
0.0820938 0.0197451 0.0 
0.912484 0.0282473 0.0 
0.523028 0.153467 0.0 
1.03835 -0.00810921 0.0 
0.921317 -0.0160918 0.0 
0.97784 -0.000632241 0.0 
0.902058 0.077118 0.0 
0.841316 0.00711064 0.0 
1.08123 -0.0680278 0.0 
0.954796 0.00838668 0.0 
0.975342 0.009538 0.0 
1.08261 0.268874 0.0 
0.211968 -0.00837542 0.0 
0.929364 0.300866 0.0 
0.972822 0.00301661 0.0 
0.988539 0.0551524 0.0 
1.06777 -0.229516 0.0 
0.968776 0.00507467 0.0 
0.961466 0.0130019 0.0 
0.997721 0.0137029 0.0 
1.03755 -0.00931167 0.0 
0.791215 0.108948 0.0 
0.904034 0.0188301 0.0 
0.99083 0.0058228 0.0 
1.02727 -0.183021 0.0 
0.995179 0.0159415 0.0 
0.935126 0.0246039 0.0 
0.805794 0.168416 0.0 
0.94975 -0.00819327 0.0 
0.99812 0.0105361 0.0 
0.93843 0.00509878 0.0 
0.187396 0.128282 0.0 
0.94357 -0.00810056 0.0 
1.06474 -0.010441 0.0 
0.952686 0.28942 0.0 
0.0585894 0.012336 0.0 
1.09974 0.25627 0.0 
0.987857 0.0153749 0.0 
0.917913 -0.120299 0.0 
0.968673 0.00221934 0.0 
0.95938 0.00956502 0.0 
0.959642 0.00493272 0.0 
0.540977 0.134589 0.0 
0.961694 0.00223419 0.0 
0.955779 -0.0133063 0.0 
0.648054 0.184184 0.0 
1.03431 -0.0130884 0.0 
1.03359 0.0472512 0.0 
0.994299 0.266644 0.0 
0.980856 0.0214224 0.0 
0.975207 0.0297036 0.0 
0.964468 0.00432689 0.0 
0.893013 0.013327 0.0 
0.958745 -0.0176307 0.0 
0.114219 0.00111416 0.0 
0.968536 0.000138584 0.0 
1.05948 0.0158601 0.0 
0.875427 0.168644 0.0 
0.996468 0.0125007 0.0 
1.0654 0.0261078 0.0 
1.05678 0.0967051 0.0 
1.10156 -0.0717779 0.0 
1.09545 0.106681 0.0 
0.976395 -0.00261378 0.0 
0.876043 0.183599 0.0 
0.996643 0.0149352 0.0 
0.996946 0.011551 0.0 
0.889369 -0.0409432 0.0 
0.97849 0.0264449 0.0 
1.16278 -0.227375 0.0 
0.637549 0.0182106 0.0 
0.941641 0.0421389 0.0 
1.01594 0.303446 0.0 
0.906224 0.353607 0.0 
0.838421 0.13261 0.0 
1.15801 0.0778423 0.0 
0.153205 0.133831 0.0 
1.01624 0.29038 0.0 
1.06421 0.266826 0.0 
1.03917 -0.00647758 0.0 
0.938257 0.0949475 0.0 
0.0474944 0.0090366 0.0 
1.17455 0.148982 0.0 
0.977555 0.0326048 0.0 
0.90936 0.122707 0.0 
1.1246 0.221084 0.0 
0.850786 0.124814 0.0 
-0.0436817 -0.0191995 0.0 
0.978672 0.0307217 0.0 
0.924618 0.0742516 0.0 
0.740039 0.140675 0.0 
0.979534 0.0274272 0.0 
0.911064 0.150804 0.0 
0.995875 0.0129765 0.0 
0.902551 0.102084 0.0 
0.979017 0.028609 0.0 
0.853442 0.0560826 0.0 
0.830549 0.0228754 0.0 
0.90351 0.164851 0.0 
0.998821 0.0117533 0.0 
0.96875 -0.00436424 0.0 
0.980008 0.0257488 0.0 
0.999241 0.0181104 0.0 
0.962574 -0.00439905 0.0 
0.961548 -0.00809499 0.0 
0.966042 -0.00385026 0.0 
0.937929 -0.0413102 0.0 
0.925442 0.058701 0.0 
0.925952 0.0887608 0.0 
1.04132 -0.00191065 0.0 
0.989635 0.0328401 0.0 
1.06407 0.0272573 0.0 
0.999386 0.0149026 0.0 
1.07785 -0.00731969 0.0 
1.00465 0.0811765 0.0 
0.949457 0.0137231 0.0 
0.976715 0.0277606 0.0 
1.04892 -0.161419 0.0 
1.09911 0.244175 0.0 
1.12308 0.232586 0.0 
0.93304 -0.0319846 0.0 
0.999273 0.0144191 0.0 
0.950961 0.0113656 0.0 
0.996384 0.0140688 0.0 
0.979416 0.00578589 0.0 
1.05485 0.00929461 0.0 
1.04772 -0.172101 0.0 
0.0659307 0.00681501 0.0 