<VTKFile type="UnstructuredGrid" version="0.1" byte_order="LittleEndian">
  <UnstructuredGrid>
    <Piece NumberOfPoints="9712" NumberOfCells="19403">
      <Points>
        <DataArray type = "Float64" NumberOfComponents="3" format="ascii">
-5 -7 0.0 
15.5 -7 0.0 
15.5 7 0.0 
-5 7 0.0 
-1.6546 1.77742 0.0 
-2.13867 1.86504 0.0 
-1.83467 1.79143 0.0 
1.47969 -2.21179 0.0 
1.36003 -2.38618 0.0 
1.4346 -2.45048 0.0 
-2.04214 1.94165 0.0 
-0.20425 1.17338 0.0 
-2.07648 1.81911 0.0 
-2.00827 1.89081 0.0 
-2.05492 1.98872 0.0 
0.192693 0.536219 0.0 
0.154285 1.75648 0.0 
1.1379 -1.62057 0.0 
-2.11226 1.96977 0.0 
-1.74119 1.75327 0.0 
1.14499 -1.58184 0.0 
-1.94373 2.37229 0.0 
1.50619 -0.664239 0.0 
1.99658 -1.76705 0.0 
1.7229 -1.18344 0.0 
-1.97759 2.52091 0.0 
-0.768046 0.387136 0.0 
1.32657 -1.43969 0.0 
1.90142 0.24821 0.0 
-0.93264 1.51038 0.0 
1.09557 0.967223 0.0 
0.627111 0.757352 0.0 
-2.05707 2.31394 0.0 
1.34027 -2.45136 0.0 
-0.725097 0.397516 0.0 
-0.666094 2.30428 0.0 
-0.73829 -0.279965 0.0 
1.73336 -1.08822 0.0 
1.88466 -1.24421 0.0 
1.50539 -1.23752 0.0 
1.65978 -1.30759 0.0 
-0.0409718 0.542603 0.0 
1.6005 -1.1227 0.0 
1.78439 -0.941488 0.0 
1.86015 -1.54236 0.0 
1.49308 -1.40058 0.0 
2.34892 -1.47149 0.0 
2.13832 -1.3246 0.0 
1.73061 0.751302 0.0 
-0.580328 0.526903 0.0 
1.51013 -2.1595 0.0 
-1.65424 3.45779 0.0 
-1.51397 2.46352 0.0 
1.42773 -2.17867 0.0 
0.304353 0.497878 0.0 
2.24628 0.228293 0.0 
1.51258 -2.27933 0.0 
-1.60346 3.44299 0.0 
-1.71408 2.36227 0.0 
2.17421 0.530405 0.0 
2.42 0.316451 0.0 
-1.63642 3.31911 0.0 
2.53942 -0.995036 0.0 
0.750003 0.810439 0.0 
2.04736 0.40918 0.0 
1.19615 -1.50641 0.0 
2.13474 0.494063 0.0 
0.547924 0.306722 0.0 
-0.2059 0.361394 0.0 
2.2127 0.547693 0.0 
1.41442 -0.597105 0.0 
1.52233 -1.46252 0.0 
-1.84114 2.53924 0.0 
-5 -2.53894 0.0 
2.32127 0.371156 0.0 
-1.69186 3.33379 0.0 
-0.964779 0.566136 0.0 
-1.81311 2.48387 0.0 
-1.78557 3.38304 0.0 
1.48278 0.914136 0.0 
2.51531 -1.89689 0.0 
1.20982 -0.330514 0.0 
0.408434 0.319657 0.0 
0.95023 0.60993 0.0 
-0.752349 0.440796 0.0 
-0.998248 0.564019 0.0 
-1.73165 3.36299 0.0 
1.24353 -1.49063 0.0 
0.942095 0.817189 0.0 
-1.77816 2.47096 0.0 
2.48183 -1.95479 0.0 
1.33574 -1.77854 0.0 
0.823335 1.12085 0.0 
-0.36308 0.598468 0.0 
0.745466 0.783414 0.0 
-1.88344 2.8521 0.0 
-1.79794 3.52221 0.0 
3.0087 0.272815 0.0 
-1.81486 2.66014 0.0 
0.375911 -0.403668 0.0 
-0.68323 0.487288 0.0 
-0.34187 -0.274923 0.0 
-0.293875 -0.201368 0.0 
1.61018 -1.767 0.0 
-0.448275 -0.347267 0.0 
-1.08687 0.352015 0.0 
1.29257 -1.76345 0.0 
1.67658 -1.49551 0.0 
1.19193 0.533009 0.0 
1.21582 -1.91654 0.0 
-0.36438 -0.346225 0.0 
-0.92534 0.330346 0.0 
2.3836 0.287756 0.0 
1.68841 0.639887 0.0 
1.59001 -1.89458 0.0 
1.14818 -1.92143 0.0 
1.28996 -2.19426 0.0 
1.37603 -1.8763 0.0 
1.23834 -2.09141 0.0 
1.11702 -2.06287 0.0 
0.691829 0.463808 0.0 
1.46523 -2.03459 0.0 
-0.123547 0.424486 0.0 
-1.3311 2.12174 0.0 
1.08169 -1.90074 0.0 
1.87975 -2.15971 0.0 
1.10131 -1.78593 0.0 
1.13722 0.534683 0.0 
1.42465 -1.59031 0.0 
-1.45435 2.47344 0.0 
1.41998 -1.98207 0.0 
0.463917 1.8787 0.0 
-1.72896 2.89571 0.0 
1.12419 -1.84975 0.0 
1.59054 -1.20634 0.0 
0.46124 0.621002 0.0 
0.806438 -1.00204 0.0 
2.1804 0.349761 0.0 
2.21142 -1.6418 0.0 
1.10152 -0.274558 0.0 
2.23388 0.387302 0.0 
0.137769 0.567007 0.0 
1.88736 0.267391 0.0 
1.26821 -1.94267 0.0 
0.21033 -0.605707 0.0 
2.61094 -1.50046 0.0 
0.819837 0.743337 0.0 
-1.4303 2.07799 0.0 
1.82013 0.322126 0.0 
-1.47649 2.2099 0.0 
1.15745 -0.274223 0.0 
-1.81198 2.24994 0.0 
2.34337 -1.67775 0.0 
-1.13329 1.37877 0.0 
-0.828215 1.05292 0.0 
2.46752 -1.53452 0.0 
-1.69915 2.18529 0.0 
-0.404416 -0.286271 0.0 
-1.23501 1.31766 0.0 
2.11757 -1.50659 0.0 
-1.08535 1.28274 0.0 
2.58548 -1.70783 0.0 
0.24729 -0.572345 0.0 
-1.66963 2.25319 0.0 
1.58322 -1.62308 0.0 
-0.367923 -0.306026 0.0 
0.391521 1.44485 0.0 
1.88977 -2.46319 0.0 
1.5943 -1.53613 0.0 
-0.357143 -0.23651 0.0 
0.82621 0.80563 0.0 
-1.59261 2.31884 0.0 
-0.47244 -0.307516 0.0 
-0.40334 -0.326688 0.0 
-2.00063 2.11543 0.0 
1.55514 -1.95078 0.0 
-1.40431 2.26352 0.0 
-0.0265928 0.573714 0.0 
1.17093 1.10579 0.0 
-1.77907 2.22111 0.0 
0.682788 0.329642 0.0 
-0.54475 2.15572 0.0 
-0.288592 0.289433 0.0 
-1.43199 2.16349 0.0 
-1.45029 2.25134 0.0 
1.5535 -1.79992 0.0 
-1.06406 1.08381 0.0 
1.72954 1.44966 0.0 
0.582806 0.515814 0.0 
0.582876 -0.679913 0.0 
1.32351 -0.355916 0.0 
-0.47505 0.577092 0.0 
-0.371167 0.227715 0.0 
1.52235 -1.8529 0.0 
-0.429822 -0.244811 0.0 
-0.53237 -0.24648 0.0 
-0.393983 -0.210364 0.0 
0.652895 0.317361 0.0 
1.55812 -1.70765 0.0 
1.63021 0.325622 0.0 
0.442731 0.358729 0.0 
1.22925 -1.85192 0.0 
1.43517 -1.79082 0.0 
1.39317 -1.6984 0.0 
1.62965 0.295952 0.0 
0.905462 0.793465 0.0 
1.04036 -1.64811 0.0 
2.1131 -1.72466 0.0 
-0.743911 0.369492 0.0 
1.14427 -1.99314 0.0 
1.26033 -2.0209 0.0 
-1.70955 2.07308 0.0 
0.910023 -1.62976 0.0 
-0.313059 -0.0954838 0.0 
-1.77334 2.3988 0.0 
-0.311958 -0.24042 0.0 
2.53315 0.325608 0.0 
-0.273728 -0.226719 0.0 
-0.646401 0.379627 0.0 
1.52426 0.616074 0.0 
2.21703 -1.79499 0.0 
2.71108 0.312216 0.0 
0.759924 1.093 0.0 
-1.69271 2.12368 0.0 
0.255794 0.540969 0.0 
0.0534699 0.562158 0.0 
-1.5679 2.22408 0.0 
-1.66906 2.45165 0.0 
-1.51895 2.09449 0.0 
2.16948 0.408238 0.0 
-0.818806 0.680638 0.0 
-0.826868 0.642087 0.0 
0.519855 0.276992 0.0 
-0.716682 1.18602 0.0 
-0.649974 -0.148775 0.0 
0.457368 0.256619 0.0 
0.517407 0.248194 0.0 
0.327129 0.39802 0.0 
0.533249 -0.878832 0.0 
-0.870735 0.634904 0.0 
1.19219 1.07557 0.0 
2.35922 0.366028 0.0 
-1.66911 3.66723 0.0 
-0.857603 1.54934 0.0 
-0.379189 2.30131 0.0 
-0.941007 1.36523 0.0 
-1.58662 2.49682 0.0 
-0.545297 0.352587 0.0 
0.327944 -0.744683 0.0 
-0.312756 0.524741 0.0 
-0.107843 0.506233 0.0 
2.13378 -2.36584 0.0 
1.52689 0.686953 0.0 
-0.119983 0.327909 0.0 
1.02161 -1.53072 0.0 
1.51507 0.39695 0.0 
-0.674484 1.02605 0.0 
-0.564724 -0.148435 0.0 
0.409388 0.290913 0.0 
0.252349 0.30842 0.0 
-1.09282 1.45998 0.0 
1.45674 -1.54484 0.0 
-0.266777 0.782169 0.0 
0.91327 -0.874389 0.0 
1.01208 1.13309 0.0 
-0.897136 1.35063 0.0 
-0.846484 0.489353 0.0 
1.47563 0.663768 0.0 
-1.22282 2.05021 0.0 
0.348906 0.416714 0.0 
1.41913 0.964648 0.0 
0.933289 -0.839038 0.0 
-1.85066 1.40221 0.0 
0.142477 1.99435 0.0 
-0.717809 0.341194 0.0 
-2.21177 1.41584 0.0 
0.396571 0.350929 0.0 
1.25171 -1.60721 0.0 
0.736798 0.393502 0.0 
-0.661427 0.19031 0.0 
2.18751 -2.32769 0.0 
-1.00908 1.6747 0.0 
2.21416 -2.07269 0.0 
-0.779194 0.642011 0.0 
-1.02312 1.3939 0.0 
2.08809 -2.24876 0.0 
-5 -4.48794 0.0 
1.61792 -1.46215 0.0 
-0.974627 1.38947 0.0 
1.81166 -2.48446 0.0 
-1.03635 1.47474 0.0 
0.869004 -1.74424 0.0 
0.956579 -1.78598 0.0 
1.07495 0.540689 0.0 
-1.08005 1.37763 0.0 
0.914755 -0.803058 0.0 
0.611759 -0.305322 0.0 
1.70043 -1.41356 0.0 
0.75708 -0.631542 0.0 
1.21215 1.01979 0.0 
-0.586902 0.440014 0.0 
1.9251 -2.56336 0.0 
-1.58261 1.91091 0.0 
-0.746541 1.26087 0.0 
-1.49915 1.13657 0.0 
-1.46675 0.971536 0.0 
-1.05881 0.930935 0.0 
0.71826 0.415078 0.0 
-0.701697 0.526982 0.0 
-1.56194 2.05157 0.0 
1.15988 0.991244 0.0 
1.38676 0.949615 0.0 
-1.61697 2.02689 0.0 
1.13748 -0.357331 0.0 
-1.8456 2.04561 0.0 
0.253686 -0.756334 0.0 
-1.53603 1.86509 0.0 
-1.43465 0.924137 0.0 
-1.00273 1.27416 0.0 
-1.03063 1.5132 0.0 
-1.32483 1.94769 0.0 
-0.965552 1.61445 0.0 
-0.239859 -0.245939 0.0 
-5 3.01776 0.0 
-5 -0.248741 0.0 
0.517491 1.87079 0.0 
-1.18776 1.8875 0.0 
2.27458 0.36201 0.0 
1.9794 0.331487 0.0 
0.503086 0.510306 0.0 
1.26387 -0.370702 0.0 
1.24483 0.550197 0.0 
1.12871 0.979556 0.0 
-1.48659 1.83259 0.0 
1.0672 0.958366 0.0 
-1.16856 1.61214 0.0 
-0.218637 -0.230696 0.0 
-5 1.81431 0.0 
1.37014 1.04658 0.0 
0.0950623 0.557621 0.0 
-1.23613 1.67303 0.0 
0.953731 -0.709843 0.0 
2.07568 -1.85385 0.0 
2.10836 -1.82014 0.0 
-0.994952 1.33552 0.0 
-1.86986 1.52312 0.0 
0.515812 0.447542 0.0 
0.842446 0.992035 0.0 
-1.42353 1.8223 0.0 
2.091 0.354014 0.0 
-0.937663 0.401428 0.0 
-1.69305 1.41997 0.0 
-1.82465 1.55127 0.0 
2.15192 0.384657 0.0 
-1.17972 1.37998 0.0 
-0.718866 -0.0130647 0.0 
-0.927867 0.290435 0.0 
1.56509 0.300406 0.0 
-5 -3.04052 0.0 
9.98027 -7 0.0 
0.176009 0.694641 0.0 
0.597997 -0.559941 0.0 
-0.546583 0.4849 0.0 
0.602022 -0.657834 0.0 
2.17737 0.379672 0.0 
1.89809 0.287017 0.0 
-1.58883 1.35796 0.0 
-1.2284 1.37063 0.0 
-1.43937 1.35342 0.0 
-1.59664 1.47263 0.0 
0.577431 -0.368705 0.0 
1.5263 -1.51093 0.0 
0.479666 0.796509 0.0 
0.894995 1.01463 0.0 
2.22312 0.363016 0.0 
-0.320562 0.726481 0.0 
-1.30188 2.41386 0.0 
0.43802 0.434693 0.0 
-0.761697 0.762024 0.0 
1.45688 -1.49591 0.0 
-0.65072 0.676835 0.0 
1.6097 -1.41509 0.0 
2.25768 0.399237 0.0 
1.85518 0.299709 0.0 
2.14618 0.290757 0.0 
2.25222 0.371677 0.0 
-1.93063 2.91367 0.0 
1.52717 0.319618 0.0 
1.67964 -1.62237 0.0 
1.35962 -0.439169 0.0 
1.63007 -1.54335 0.0 
-5 -0.764504 0.0 
-1.61377 2.62271 0.0 
1.73865 -1.57725 0.0 
-0.908306 1.23669 0.0 
1.60766 0.330292 0.0 
1.82509 -1.63054 0.0 
1.90521 0.312457 0.0 
1.98719 -1.6488 0.0 
-0.528791 0.39225 0.0 
1.94978 -2.39003 0.0 
-0.472559 0.718465 0.0 
-1.28058 2.26572 0.0 
0.881581 -0.556282 0.0 
2.26369 0.42542 0.0 
0.917309 -1.69962 0.0 
0.853954 -1.60945 0.0 
1.30086 -0.404316 0.0 
1.99565 -2.46852 0.0 
1.49445 -1.47573 0.0 
1.68285 0.863315 0.0 
2.03074 -2.37549 0.0 
2.52279 -0.506167 0.0 
2.56049 -1.76899 0.0 
-1.52889 2.56597 0.0 
2.81136 -0.570221 0.0 
1.3688 -1.46095 0.0 
1.29524 -0.373946 0.0 
-0.350504 0.671928 0.0 
-0.590282 0.564035 0.0 
-0.054366 2.16706 0.0 
1.50819 1.22548 0.0 
-0.548222 0.453941 0.0 
2.19936 -2.5207 0.0 
12.2704 -7 0.0 
1.6811 -1.36761 0.0 
-0.449261 0.559535 0.0 
0.537017 -0.527614 0.0 
-0.00733391 0.553304 0.0 
0.494109 -0.356396 0.0 
-0.7939 0.0827441 0.0 
0.39888 0.467333 0.0 
-1.04288 1.34095 0.0 
0.605019 1.02824 0.0 
0.847559 0.374727 0.0 
1.00336 0.618307 0.0 
2.1955 0.399186 0.0 
0.656973 0.401158 0.0 
-0.998431 2.73564 0.0 
[...]
<PointData>
  <DataArray type = "Float64" Name="VitesseP1" NumberOfComponents="3" format="ascii">
1 0 0.0 
1.05858 0 0.0 
1.01686 0 0.0 
1 0 0.0 
0.994453 0.0161337 0.0 
0.996816 0.0114181 0.0 
0.99536 0.0139218 0.0 
1.03613 -0.0057828 0.0 
1.03656 -0.00925217 0.0 
1.03956 -0.00886296 0.0 
0.997671 0.0123656 0.0 
0.985735 0.0727127 0.0 
0.996504 0.0117516 0.0 
0.996712 0.0125555 0.0 
0.998851 0.0123722 0.0 
0.9922 0.217401 0.0 
1.0181 0.0546345 0.0 
1.0519 -0.0252777 0.0 
0.998779 0.011782 0.0 
0.994885 0.0148536 0.0 
1.05497 -0.0260686 0.0 
0.998732 0.0137554 0.0 
1.15697 -0.0219406 0.0 
1.04946 0.0110606 0.0 
1.05969 -0.00052516 0.0 
0.998684 0.0133437 0.0 
0.944309 0.00883946 0.0 
1.0601 -0.021039 0.0 
0.0632245 0.018934 0.0 
0.98843 0.0317683 0.0 
1.13937 0.0636627 0.0 
1.10918 0.14009 0.0 
0.998741 0.0127391 0.0 
1.02827 -0.0218136 0.0 
0.941157 0.0124161 0.0 
1.00517 0.0311149 0.0 
0.936898 -0.0511146 0.0 
1.08043 0.00010733 0.0 
1.05245 0.00971898 0.0 
1.05151 -0.0141916 0.0 
1.054 -0.00405631 0.0 
0.926722 0.151276 0.0 
1.07148 -0.0093134 0.0 
1.12222 0.0042394 0.0 
1.06468 0.00684172 0.0 
1.06036 -0.0128848 0.0 
1.05622 0.0328574 0.0 
1.05231 0.0243997 0.0 
1.193 0.0119128 0.0 
0.939348 0.0357003 0.0 
1.036 -0.00532363 0.0 
1.0025 0.012804 0.0 
0.99963 0.0179943 0.0 
1.03553 -0.00722906 0.0 
1.03776 0.242172 0.0 
0.0548753 -0.013345 0.0 
1.0363 -0.00489079 0.0 
1.00273 0.0132174 0.0 
0.998937 0.0160493 0.0 
1.17975 -0.0424714 0.0 
0.262173 -0.0612849 0.0 
1.00232 0.0134782 0.0 
1.08562 0.0624343 0.0 
1.12166 0.118109 0.0 
0.677548 -0.0215928 0.0 
1.05851 -0.0258829 0.0 
1.12841 -0.0396292 0.0 
0.559753 0.134429 0.0 
0.862616 0.0853329 0.0 
1.18452 -0.0461103 0.0 
1.19759 -0.0331176 0.0 
1.06349 -0.0107039 0.0 
0.998884 0.0145078 0.0 
1 0 0.0 
0.45576 -0.062912 0.0 
1.00209 0.0130401 0.0 
0.967969 0.0107637 0.0 
0.998908 0.0148637 0.0 
1.00174 0.012193 0.0 
1.16782 0.0269605 0.0 
1.03595 0.0183753 0.0 
0.765106 -0.0387321 0.0 
0.950085 0.262429 0.0 
1.17283 0.110936 0.0 
0.945959 0.0143668 0.0 
0.969786 0.00906538 0.0 
1.00201 0.0126352 0.0 
1.05958 -0.0241116 0.0 
1.1419 0.0937155 0.0 
0.998971 0.015217 0.0 
1.04168 0.0229293 0.0 
1.0467 -0.0145622 0.0 
1.09402 0.0775238 0.0 
0.935297 0.0700061 0.0 
1.12413 0.122225 0.0 
0.999711 0.0133129 0.0 
1.00227 0.0114169 0.0 
0.129065 -0.125195 0.0 
0.999061 0.0144558 0.0 
1.19231 -0.23356 0.0 
0.943866 0.0231162 0.0 
0.918783 -0.0881484 0.0 
0.915781 -0.0742985 0.0 
1.05031 -0.00423429 0.0 
0.924227 -0.0780538 0.0 
0.966941 -0.00800189 0.0 
1.04676 -0.0163932 0.0 
1.065 -0.00244896 0.0 
1.19753 0.0766399 0.0 
1.03853 -0.0162443 0.0 
0.919967 -0.0883722 0.0 
0.954599 -0.00348624 0.0 
0.173228 -0.0464603 0.0 
1.20024 0.0185739 0.0 
1.04376 -0.00433245 0.0 
1.03715 -0.0180049 0.0 
1.03401 -0.0101473 0.0 
1.04273 -0.011776 0.0 
1.03345 -0.0130297 0.0 
1.03168 -0.0172372 0.0 
1.16477 0.18175 0.0 
1.03678 -0.00732626 0.0 
0.87716 0.125796 0.0 
0.998904 0.0214777 0.0 
1.03671 -0.020241 0.0 
1.03572 0.00460901 0.0 
1.0417 -0.0223187 0.0 
1.19676 0.0847733 0.0 
1.0605 -0.0139507 0.0 
0.999873 0.0186324 0.0 
1.03793 -0.00918661 0.0 
1.02681 0.0481138 0.0 
1.0006 0.0143896 0.0 
1.03957 -0.0201879 0.0 
1.05546 -0.00908956 0.0 
1.08733 0.18759 0.0 
1.06745 -0.0715456 0.0 
0.311974 -0.0308236 0.0 
1.05407 0.0215033 0.0 
0.459842 -0.0373658 0.0 
0.537131 -0.0526316 0.0 
0.977536 0.195917 0.0 
0.0745462 0.0166073 0.0 
1.03798 -0.0142897 0.0 
1.03056 -0.159739 0.0 
1.04307 0.046997 0.0 
1.13841 0.11755 0.0 
0.998634 0.0200592 0.0 
0.123501 0.0210605 0.0 
0.998783 0.0191426 0.0 
0.413393 -0.0160121 0.0 
0.998639 0.0151087 0.0 
1.04765 0.025424 0.0 
0.984897 0.0249402 0.0 
0.973169 0.0346429 0.0 
1.05039 0.0364206 0.0 
0.998461 0.0163704 0.0 
0.922739 -0.079299 0.0 
0.983927 0.0213312 0.0 
1.06203 0.0200779 0.0 
0.981315 0.025772 0.0 
1.03355 0.0303811 0.0 
1.03998 -0.170206 0.0 
0.998738 0.0166751 0.0 
1.05965 -0.00632333 0.0 
0.920139 -0.0856584 0.0 
1.03219 0.069711 0.0 
1.03955 0.000760501 0.0 
1.06451 -0.00642767 0.0 
0.916492 -0.0814861 0.0 
1.13149 0.109505 0.0 
0.999038 0.0174803 0.0 
0.927576 -0.0724982 0.0 
0.922121 -0.0823569 0.0 
0.998539 0.0131221 0.0 
1.04047 -0.00524649 0.0 
0.999269 0.0199927 0.0 
0.938774 0.151201 0.0 
1.12587 0.0455416 0.0 
0.998579 0.0154688 0.0 
0.6381 0.11016 0.0 
1.00575 0.0352608 0.0 
0.863185 0.0453711 0.0 
0.998744 0.0198636 0.0 
0.999081 0.0193997 0.0 
1.04807 -0.00623679 0.0 
0.97368 0.0242116 0.0 
1.06614 -0.0327562 0.0 
1.14151 0.197706 0.0 
1.10848 -0.127353 0.0 
0.883724 -0.0263651 0.0 
0.938014 0.0519038 0.0 
0.874886 0.0163996 0.0 
1.04531 -0.00697795 0.0 
0.924039 -0.0728789 0.0 
0.933129 -0.0623655 0.0 
0.918845 -0.0740392 0.0 
0.584927 0.11053 0.0 
1.05356 -0.00676748 0.0 
0.100595 0.0166466 0.0 
1.03831 0.264053 0.0 
1.04155 -0.0169582 0.0 
1.04747 -0.0107597 0.0 
1.05232 -0.013649 0.0 
0.0761968 0.0117608 0.0 
1.14134 0.100576 0.0 
1.04743 -0.0280286 0.0 
1.05039 0.0160356 0.0 
0.941197 0.00867128 0.0 
1.03373 -0.017086 0.0 
1.03476 -0.0133567 0.0 
0.998627 0.0162366 0.0 
1.0443 -0.0328594 0.0 
0.898844 -0.0654005 0.0 
0.998906 0.0153793 0.0 
0.909747 -0.0855042 0.0 
0.326603 -0.0741149 0.0 
0.887945 -0.0836861 0.0 
0.932401 0.0161608 0.0 
1.1996 0.0348993 0.0 
1.04521 0.0185507 0.0 
0.382244 -0.0695856 0.0 
1.09385 0.0852534 0.0 
0.998425 0.0164482 0.0 
1.01894 0.222183 0.0 
0.951357 0.176824 0.0 
0.998727 0.0179336 0.0 
0.999169 0.0163477 0.0 
0.998612 0.0187469 0.0 
0.680104 -0.041202 0.0 
0.967549 0.0252284 0.0 
0.96524 0.0227317 0.0 
0.41588 0.135656 0.0 
0.976087 0.0411224 0.0 
0.940293 -0.0442188 0.0 
0.302617 0.10158 0.0 
0.376224 0.184388 0.0 
1.06364 0.295974 0.0 
1.06884 -0.101579 0.0 
0.967006 0.0196583 0.0 
1.13357 0.045468 0.0 
0.442486 -0.0647459 0.0 
1.00053 0.012136 0.0 
0.990013 0.0341171 0.0 
1.0093 0.0358268 0.0 
0.983442 0.0314002 0.0 
0.999464 0.0170985 0.0 
0.918526 0.0213839 0.0 
1.0584 -0.130473 0.0 
0.918782 0.0755716 0.0 
0.908547 0.131727 0.0 
1.03872 0.014087 0.0 
1.18978 0.0322045 0.0 
0.829755 0.116526 0.0 
1.05361 -0.0324625 0.0 
0.604858 0.0209427 0.0 
0.975521 0.0436879 0.0 
0.932689 -0.0501251 0.0 
0.703439 0.194391 0.0 
0.899871 0.33861 0.0 
0.986995 0.026626 0.0 
1.06294 -0.0129749 0.0 
0.967009 0.0861538 0.0 
1.11203 -0.0744556 0.0 
1.10738 0.0596383 0.0 
0.982805 0.0330464 0.0 
0.956085 0.0122032 0.0 
1.19088 0.0382336 0.0 
0.998991 0.0235013 0.0 
1.07782 0.282906 0.0 
1.16086 0.0299565 0.0 
1.12238 -0.0753395 0.0 
0.993966 0.0104025 0.0 
1.01669 0.0472749 0.0 
0.937205 0.00755846 0.0 
0.997162 0.00871324 0.0 
1.01926 0.283473 0.0 
1.05584 -0.0210713 0.0 
1.00451 0.149838 0.0 
0.924973 -0.0064981 0.0 
1.03328 0.0273825 0.0 
0.992532 0.029174 0.0 
1.03455 0.015258 0.0 
0.96265 0.0259082 0.0 
0.984698 0.0286088 0.0 
1.03205 0.00776072 0.0 
1 0 0.0 
1.06427 -0.00564848 0.0 
0.984404 0.0302574 0.0 
1.03866 0.000372022 0.0 
0.987271 0.0284196 0.0 
1.03693 -0.0301452 0.0 
1.03795 -0.0265904 0.0 
1.19369 0.0945457 0.0 
0.984511 0.0266301 0.0 
1.12806 -0.0799143 0.0 
0.915847 -0.145592 0.0 
1.06255 -0.0014104 0.0 
1.12727 -0.112677 0.0 
1.14258 0.0473281 0.0 
0.931137 0.0273811 0.0 
1.03777 0.00473697 0.0 
0.995789 0.0176215 0.0 
0.979344 0.0395204 0.0 
0.983864 0.0113972 0.0 
0.995484 0.0106613 0.0 
0.990063 0.021513 0.0 
1.09233 0.166254 0.0 
0.948413 0.0246654 0.0 
0.9986 0.0181061 0.0 
1.14186 0.0549254 0.0 
1.16004 0.0339013 0.0 
0.99835 0.017339 0.0 
0.939081 -0.0546754 0.0 
0.999014 0.0145983 0.0 
1.04266 -0.127381 0.0 
0.994868 0.0182151 0.0 
1.00026 0.011322 0.0 
0.980427 0.028656 0.0 
0.988526 0.0286736 0.0 
0.99639 0.0218521 0.0 
0.991594 0.0305508 0.0 
0.882265 -0.105472 0.0 
1 0 0.0 
1 0 0.0 
1.02857 0.0474597 0.0 
0.995012 0.0245147 0.0 
0.393974 -0.0549987 0.0 
0.171375 0.00945401 0.0 
1.11708 0.215317 0.0 
0.96886 -0.0409415 0.0 
1.2009 0.0695872 0.0 
1.14071 0.0591475 0.0 
0.994287 0.018925 0.0 
1.13805 0.0674613 0.0 
0.991583 0.0249932 0.0 
0.948563 -0.163907 0.0 
1 0 0.0 
1.15084 0.0290618 0.0 
0.961678 0.189362 0.0 
0.992546 0.0235083 0.0 
1.14283 -0.0826296 0.0 
1.0442 0.0130496 0.0 
1.0455 0.0145858 0.0 
0.982537 0.0293364 0.0 
0.995253 0.0116659 0.0 
1.12907 0.230643 0.0 
1.11614 0.0882979 0.0 
0.994025 0.0199849 0.0 
0.303091 -0.0157866 0.0 
0.95829 0.00130359 0.0 
0.991963 0.0124586 0.0 
0.995178 0.0123856 0.0 
0.498046 -0.0333586 0.0 
0.985259 0.0235495 0.0 
0.948788 -0.02912 0.0 
0.953367 -0.00669646 0.0 
0.0920522 0.00603445 0.0 
1 0 0.0 
1.0513 0 0.0 
1.00762 0.165372 0.0 
1.11937 -0.144395 0.0 
0.931896 0.0358454 0.0 
1.11248 -0.128594 0.0 
0.470892 -0.0378917 0.0 
0.0873053 0.0164273 0.0 
0.989477 0.0131847 0.0 
0.985406 0.0220606 0.0 
0.987242 0.0163357 0.0 
0.99151 0.0146352 0.0 
1.11038 -0.172168 0.0 
1.06404 -0.00998579 0.0 
1.07915 0.1455 0.0 
1.11876 0.0810678 0.0 
0.387873 -0.0439732 0.0 
0.956571 0.0790475 0.0 
1.00037 0.0207372 0.0 
1.11181 0.25582 0.0 
0.972208 0.032645 0.0 
1.06326 -0.0136926 0.0 
0.959212 0.0379199 0.0 
1.06231 -0.0064467 0.0 
0.623664 -0.0580714 0.0 
0.0938799 0.0177578 0.0 
0.0808858 -0.00498051 0.0 
0.443334 -0.0523667 0.0 
0.999744 0.0127367 0.0 
0.0725427 0.00583207 0.0 
1.06016 -0.00192597 0.0 
1.16543 -0.0376269 0.0 
1.06457 -0.0046374 0.0 
1 0 0.0 
0.999578 0.0164122 0.0 
1.06346 0.000802407 0.0 
0.978789 0.0322243 0.0 
0.10635 0.0179629 0.0 
1.05967 0.00474158 0.0 
0.117615 0.0132931 0.0 
1.05726 0.0118674 0.0 
0.920223 0.0280463 0.0 
1.03523 0.00207553 0.0 
0.957249 0.0582559 0.0 
0.999738 0.0217194 0.0 
1.19389 -0.107216 0.0 
0.815441 -0.0595409 0.0 
1.04075 -0.030268 0.0 
1.04339 -0.0352289 0.0 
1.07558 -0.0398562 0.0 
1.0456 0.0101755 0.0 
1.06351 -0.0120243 0.0 
1.1805 0.00903225 0.0 
1.03486 0.012852 0.0 
1.23887 0.0929563 0.0 
1.03464 0.0253649 0.0 
0.999778 0.0174682 0.0 
1.15084 0.117783 0.0 
1.06133 -0.0186502 0.0 
0.982166 -0.0409263 0.0 
0.947654 0.0740242 0.0 
0.944125 0.0373651 0.0 
1.01399 0.0432771 0.0 
1.12468 -0.00377237 0.0 
0.928795 0.0327 0.0 
1.01643 -0.000989146 0.0 
1.04512 0 0.0 
1.05946 -0.00258748 0.0 
0.93374 0.0543764 0.0 
1.13899 -0.162092 0.0 
0.935588 0.160148 0.0 
1.10459 -0.193903 0.0 
0.952797 -0.0198645 0.0 
1.08791 0.249735 0.0 
0.983019 0.0276432 0.0 
1.08598 0.103144 0.0 
0.797091 0.100353 0.0 
1.17533 0.101622 0.0 
0.615501 -0.0460985 0.0 
1.07858 0.184718 0.0 
1.00384 0.021844 0.0 
1.05675 0.0144904 0.0 
1.04187 0.00777524 0.0 
1.0507 -0.00128765 0.0 
1.04816 -0.000306428 0.0 
0.145981 -0.014599 0.0 
1.03994 0.00131729 0.0 
0.107114 0.020411 0.0 
1.10974 -0.0747888 0.0 
1.00378 0.0356554 0.0 
1.04457 0.00840666 0.0 
1 0 0.0 
0.983014 0.0264768 0.0 
1.19402 0.0902029 0.0 
0.875718 -0.0818967 0.0 
0.999435 0.0158451 0.0 
0.991441 0.0393183 0.0 
1.05264 0.00946067 0.0 
1.05655 0.0049042 0.0 
0.939835 0.188745 0.0 
0.785872 0.129766 0.0 
1.00407 0.0188987 0.0 
1.17302 0.156713 0.0 
0.999954 0.242738 0.0 
0.998959 0.0124185 0.0 
0.986029 0.0292623 0.0 
1.0543 0.000841191 0.0 
0.93777 0.124495 0.0 
0.27855 -0.039277 0.0 
1.05335 0.00289181 0.0 
0.175411 0.0990835 0.0 
1.05362 -0.00116516 0.0 
1.09817 -0.0575436 0.0 
1.01496 0.0484815 0.0 
1.12689 -0.071113 0.0 
1.04964 0.00178779 0.0 
0.956877 -0.00609495 0.0 
0.385559 0.0150717 0.0 
1.06052 -0.0220941 0.0 
0.946439 -0.00129438 0.0 
0.999636 0.0155425 0.0 
1.05796 -0.0267794 0.0 
0.941706 0.065749 0.0 
1.19332 -0.040904 0.0 
0.375894 -0.0561197 0.0 
0.743122 -0.0660703 0.0 
0.940971 -0.00446845 0.0 
0.964722 0.271946 0.0 
0.253126 0.0477721 0.0 
0.997236 0.3155 0.0 
1.04786 -0.0492852 0.0 
1.07681 -0.0410254 0.0 
0.842141 -0.0305291 0.0 
0.35896 0.11638 0.0 
1.09923 0.0679553 0.0 
0.998582 0.0125029 0.0 
0.686127 -0.0246935 0.0 
0.258642 -0.0199684 0.0 
0.914898 -0.0432618 0.0 
0.891558 -0.0716402 0.0 
1.02857 0.0421359 0.0 
0.998688 0.0120681 0.0 
1.02605 -0.0972794 0.0 
1.12104 -0.029001 0.0 
1.1655 0.0163934 0.0 
0.098917 0.0168287 0.0 
0.936392 -0.0574255 0.0 
1.03349 0.0355813 0.0 
1.06328 -0.00765958 0.0 
0.937999 -0.00884883 0.0 
0.171119 -0.0015349 0.0 
0.998695 0.0130133 0.0 
1.16562 0.0207799 0.0 
1.05738 -0.0261649 0.0 
0.963824 0.215695 0.0 
1.04884 0.00944157 0.0 
1.06429 0.000423633 0.0 
1.06412 0.00506915 0.0 
0.954454 0.0376729 0.0 
1.05897 -0.0240057 0.0 
0.998806 0.0142201 0.0 
0.952117 0.0071839 0.0 
1.14431 -0.0279689 0.0 
1.05026 0.0206412 0.0 
0.989232 0.00751672 0.0 
0.953326 0.0154411 0.0 
0.99884 0.0144137 0.0 
1.05477 0.00570748 0.0 
1.04126 -0.00290948 0.0 
1.05936 -0.02138 0.0 
0.990396 0.00917691 0.0 
1.01918 0.0416171 0.0 
0.998826 0.0136111 0.0 
1.04868 -0.0259797 0.0 
1.06035 0.0189444 0.0 
0.0675146 -0.00405338 0.0 
0.0703565 0.0340378 0.0 
1.06368 0.0148096 0.0 
0.905711 -0.056304 0.0 
0.899988 -0.0444744 0.0 
0.886225 0.11902 0.0 
0.999262 0.0143841 0.0 
0.998752 0.0143134 0.0 
0.962634 -0.0130972 0.0 
0.964868 -0.00185197 0.0 
1.03425 0.0214628 0.0 
0.963855 0.234563 0.0 
1.06675 0.151019 0.0 
1.02694 -0.0449543 0.0 
0.0813204 0.00758645 0.0 
1.15369 0.0184361 0.0 
1.0605 0.135348 0.0 
0.998624 0.0138135 0.0 
1.01533 0.0324125 0.0 
1.10445 -0.00840701 0.0 
0.982829 0.0211239 0.0 
0.93441 0.0465234 0.0 
1.03442 -0.0280633 0.0 
0.973327 0.0375315 0.0 
0.941098 0.108944 0.0 
0.934078 0.059023 0.0 
0.921047 -0.0797642 0.0 
0.962787 0.00724575 0.0 
0.800013 -0.0459088 0.0 
1.00083 0.018665 0.0 
1.02854 0.0439085 0.0 
0.953651 -0.0100722 0.0 
0.961442 -0.000898997 0.0 
0.922538 0.0343079 0.0 
1.10196 0.248031 0.0 
0.972276 0.0062232 0.0 
0.943392 0.291466 0.0 
0.945325 0.0329019 0.0 
0.975278 0.226051 0.0 
0.850869 0.285772 0.0 
0.995122 0.00773727 0.0 
1.00236 0 0.0 
0.998762 0.012444 0.0 
0.977218 0.0016953 0.0 
0.898241 0.153047 0.0 
0.142321 0.00818253 0.0 
1.01013 0.0444075 0.0 
0.98074 0.00731643 0.0 
0.999359 0.0128446 0.0 
0.916076 -0.0717047 0.0 
0.916556 0.0330986 0.0 
1.20076 -0.0286976 0.0 
0.998624 0.0127307 0.0 
1.01352 0.0877854 0.0 
0.819933 -0.105183 0.0 
1.03572 -0.0228508 0.0 
0.936134 0.063748 0.0 
0.995156 0.0165514 0.0 
0.944355 0.0276653 0.0 
0.990901 0.020368 0.0 
0.0873777 0.0268625 0.0 
0.820501 -0.0985505 0.0 
1.03619 -0.00643191 0.0 
1.14195 0.0912533 0.0 
1.15119 -0.0650411 0.0 
0.997664 0.0109659 0.0 
0.982007 0.018857 0.0 
1.00646 0.201255 0.0 
1.11395 0.15615 0.0 
0.587599 0.0951925 0.0 
0.951133 0.188897 0.0 
0.981387 0.0192194 0.0 
0.408127 -0.0750919 0.0 
0.982355 0.0221609 0.0 
0.99722 0.0130596 0.0 
1.00018 0.0200937 0.0 
0.365267 -0.0762802 0.0 
0.31236 -0.0706484 0.0 
0.981488 0.030434 0.0 
0.341228 0.0579476 0.0 
1.19249 0.0857456 0.0 
1.00939 0.0438393 0.0 
0.980631 0.0326909 0.0 
0.999551 0.0199763 0.0 
0.977899 0.0113977 0.0 
0.930232 0.068786 0.0 
0.976579 0.0259193 0.0 
0.852232 0.285047 0.0 
0.60977 -0.0819588 0.0 
0.331571 -0.065986 0.0 
0.968147 0.0136648 0.0 
0.974766 0.0122996 0.0 
1.05436 0.20398 0.0 
0.432076 -0.0811495 0.0 
0.939782 0.0211276 0.0 
1.03761 -0.0368571 0.0 
0.983169 0.245464 0.0 
0.999117 0.0140144 0.0 
0.922481 0.0818741 0.0 
0.97214 0.0312623 0.0 
0.930098 0.143221 0.0 
0.963055 0.155384 0.0 
1.00903 0.25478 0.0 
0.828743 -0.0752334 0.0 
0.937472 -0.0521727 0.0 
1.10638 0.0622859 0.0 
0.471892 0.093497 0.0 
0.926638 -0.059497 0.0 
0.215541 -0.043493 0.0 
0.89921 -0.0127386 0.0 
0.752846 0.135572 0.0 
0.915407 -0.0662744 0.0 
0.922465 -0.0559926 0.0 
0.61707 0.165102 0.0 
1.04906 0.0065876 0.0 
0.940883 0.173246 0.0 
0.879773 -0.00480254 0.0 
0.92856 -0.0535694 0.0 
1.03511 -0.00807376 0.0 
0.343213 0.0414254 0.0 
1.0344 -0.0102935 0.0 
0.866131 0.00751471 0.0 
0.899447 0.216975 0.0 
1.04047 -0.000648597 0.0 
0.906999 -0.0879309 0.0 
0.924329 0.182246 0.0 
0.409369 -0.081487 0.0 
1.11993 0.0658985 0.0 
1.03729 0.169075 0.0 
0.831949 0.38076 0.0 
1.10187 0.163624 0.0 
1.06509 0.259138 0.0 
1.03792 -0.076445 0.0 
0.777143 -0.116195 0.0 
0.977688 0.0335165 0.0 
0.528822 0.0617482 0.0 
0.918741 -0.0524952 0.0 
1.03706 0.065264 0.0 
0.318448 -0.046917 0.0 
1.04411 0.263107 0.0 
1.05128 0.0391894 0.0 
0.879006 0.105315 0.0 
1.00492 0.0223673 0.0 
0.892732 0.0670281 0.0 
0.261432 -0.0368774 0.0 
0.853306 0.0764637 0.0 
0.949362 0.0370155 0.0 
0.947204 0.00403773 0.0 
1.16991 -0.0348605 0.0 
0.764196 0.335291 0.0 
0.84767 0.0891713 0.0 
1.02702 0.0730418 0.0 
1.08174 -0.0940012 0.0 
0.92141 -0.0467293 0.0 
1.0408 0.271352 0.0 
0.96467 0.0170539 0.0 
0.995302 0.0407604 0.0 
0.910222 0.0770872 0.0 
0.924529 0.112648 0.0 
0.910627 0.0355386 0.0 
1.00896 0.0282319 0.0 
0.919772 0.105976 0.0 
0.917491 0.2207 0.0 
0.999052 0.0130886 0.0 
1.09101 -0.0690822 0.0 
0.421419 -0.0814504 0.0 
1.05491 0.250445 0.0 
0.96617 0.202787 0.0 
0.807149 0.151259 0.0 
0.82704 0.0382851 0.0 
0.88626 0.0299477 0.0 
1.04247 0.304815 0.0 
0.999426 0.0178021 0.0 
1.12429 0.13816 0.0 
1.03317 0.225895 0.0 
0.886853 -0.0482034 0.0 
0.922864 -0.00177591 0.0 
0.858421 0.158392 0.0 
0.910886 0.0207845 0.0 
0.885162 0.0149715 0.0 
0.932607 -0.0458917 0.0 
0.93421 0.207083 0.0 
0.99539 0.0308261 0.0 
0.999417 0.0153044 0.0 
0.215478 -0.0370051 0.0 
0.190394 -0.0299781 0.0 
0.912848 0.0278913 0.0 
0.52824 0.153715 0.0 
1.03462 -0.00921214 0.0 
0.921922 -0.0162259 0.0 
0.977913 -0.000796024 0.0 
0.902587 0.0765538 0.0 
0.842015 0.00684513 0.0 
1.08081 -0.0655418 0.0 
0.954949 0.00814454 0.0 
0.975469 0.00930457 0.0 
1.08449 0.267074 0.0 
0.346586 -0.0743464 0.0 
0.93081 0.300069 0.0 
0.97292 0.00282049 0.0 
0.988348 0.0544791 0.0 
1.06889 -0.228564 0.0 
0.96889 0.00485962 0.0 
0.961634 0.0127311 0.0 
0.997631 0.0136239 0.0 
1.0352 -0.00982656 0.0 
0.803423 0.107736 0.0 
0.904407 0.0185202 0.0 
0.990911 0.00566355 0.0 
1.02848 -0.181945 0.0 
0.995039 0.0158183 0.0 
0.935407 0.0242609 0.0 
0.813825 0.167844 0.0 
0.949854 -0.00832136 0.0 
0.998078 0.0104415 0.0 
0.938628 0.00487864 0.0 
0.18946 0.128604 0.0 
0.943743 -0.00822369 0.0 
1.06143 -0.00886909 0.0 
0.954109 0.288458 0.0 
0.145165 -0.00430453 0.0 
1.10172 0.254252 0.0 
0.988001 0.0151162 0.0 
0.946653 -0.13599 0.0 
0.968771 0.00201988 0.0 
0.959532 0.00931569 0.0 
0.959765 0.00471196 0.0 
0.545041 0.134914 0.0 
0.961797 0.00202914 0.0 
0.955844 -0.0134103 0.0 
0.654192 0.184159 0.0 
1.03229 -0.0136147 0.0 
1.03176 0.0464271 0.0 
0.998181 0.265503 0.0 
0.980821 0.0211396 0.0 
0.975198 0.029326 0.0 
0.964581 0.00411147 0.0 
0.893448 0.0130389 0.0 
0.958785 -0.0177166 0.0 
0.122457 0.00481045 0.0 
0.968621 -5.02964e-05 0.0 
1.05553 0.0172259 0.0 
0.876278 0.167939 0.0 
0.996409 0.0123769 0.0 
1.05964 0.0264166 0.0 
1.05603 0.09442 0.0 
1.10139 -0.0690901 0.0 
1.09516 0.103612 0.0 
0.97646 -0.0027703 0.0 
0.876951 0.182877 0.0 
0.996524 0.0148397 0.0 
0.996883 0.0114479 0.0 
0.890369 -0.0410772 0.0 
0.978465 0.0261057 0.0 
1.16412 -0.226053 0.0 
0.747034 0.0076263 0.0 
0.941975 0.0416836 0.0 
1.01775 0.302258 0.0 
0.909046 0.353026 0.0 
0.83917 0.132051 0.0 
1.1577 0.0709576 0.0 
0.154533 0.134228 0.0 
1.01918 0.289169 0.0 
1.06731 0.265201 0.0 
1.03574 -0.0070555 0.0 
0.938781 0.0942008 0.0 
0.0538993 0.0245704 0.0 
1.17633 0.144741 0.0 
0.977527 0.0322022 0.0 
0.910031 0.121962 0.0 
1.12778 0.218578 0.0 
0.851518 0.124243 0.0 
-0.0312331 -0.0222671 0.0 
0.978631 0.0303398 0.0 
0.925097 0.0736473 0.0 
0.749178 0.1401 0.0 
0.97949 0.0270821 0.0 
0.911841 0.149984 0.0 
0.99578 0.0128678 0.0 
0.903158 0.101427 0.0 
0.978979 0.0282508 0.0 
0.854026 0.0556589 0.0 
0.831235 0.0225673 0.0 
0.904339 0.164041 0.0 
0.998691 0.0117342 0.0 
0.968811 -0.00453502 0.0 
0.979963 0.0254226 0.0 
0.998961 0.0180608 0.0 
0.962643 -0.00457116 0.0 
0.961589 -0.00825356 0.0 
0.966106 -0.00402513 0.0 
0.938588 -0.041257 0.0 
0.925868 0.0581745 0.0 
0.926477 0.0880841 0.0 
1.03639 -0.00216451 0.0 
0.98947 0.0324715 0.0 
1.0582 0.0278404 0.0 
0.999057 0.0149533 0.0 
1.07425 -0.00476659 0.0 
1.00437 0.0800101 0.0 
0.949651 0.0134465 0.0 
0.9767 0.0274039 0.0 
1.04995 -0.160186 0.0 
1.10272 0.242067 0.0 
1.12496 0.230154 0.0 
0.933852 -0.032034 0.0 
0.998953 0.0144733 0.0 
0.951139 0.011104 0.0 
0.996271 0.0139759 0.0 
0.979518 0.00558799 0.0 
1.05165 0.0110061 0.0 
1.04891 -0.1709 0.0 
0.148297 0.0104919 0.0 
0.67008 0.136515 0.0 
0.943 -0.0424245 0.0 