<VTKFile type="UnstructuredGrid" version="0.1" byte_order="LittleEndian">
  <UnstructuredGrid>
    <Piece NumberOfPoints="9751" NumberOfCells="19154">
      <Points>
        <DataArray type = "Float32" NumberOfComponents="3" format="ascii">
-5 -7 0.0 
15.5 -7 0.0 
15.5 7 0.0 
-5 7 0.0 
-4.80097 -7 0.0 
-4.60194 -7 0.0 
-4.40291 -7 0.0 
-4.20388 -7 0.0 
-4.00485 -7 0.0 
-3.80583 -7 0.0 
-3.6068 -7 0.0 
-3.40777 -7 0.0 
-3.20874 -7 0.0 
-3.00971 -7 0.0 
-2.81068 -7 0.0 
-2.61165 -7 0.0 
-2.41262 -7 0.0 
-2.21359 -7 0.0 
-2.01456 -7 0.0 
-1.81553 -7 0.0 
-1.6165 -7 0.0 
-1.41748 -7 0.0 
-1.21845 -7 0.0 
-1.01942 -7 0.0 
-0.820388 -7 0.0 
-0.621359 -7 0.0 
-0.42233 -7 0.0 
-0.223301 -7 0.0 
-0.0242718 -7 0.0 
0.174757 -7 0.0 
0.373786 -7 0.0 
0.572816 -7 0.0 
0.771845 -7 0.0 
0.970874 -7 0.0 
1.1699 -7 0.0 
1.36893 -7 0.0 
1.56796 -7 0.0 
1.76699 -7 0.0 
1.96602 -7 0.0 
2.16505 -7 0.0 
2.36408 -7 0.0 
2.56311 -7 0.0 
2.76214 -7 0.0 
2.96117 -7 0.0 
3.16019 -7 0.0 
3.35922 -7 0.0 
3.55825 -7 0.0 
3.75728 -7 0.0 
3.95631 -7 0.0 
4.15534 -7 0.0 
4.35437 -7 0.0 
4.5534 -7 0.0 
4.75243 -7 0.0 
4.95146 -7 0.0 
5.15049 -7 0.0 
5.34951 -7 0.0 
5.54854 -7 0.0 
5.74757 -7 0.0 
5.9466 -7 0.0 
6.14563 -7 0.0 
6.34466 -7 0.0 
6.54369 -7 0.0 
6.74272 -7 0.0 
6.94175 -7 0.0 
7.14078 -7 0.0 
7.33981 -7 0.0 
7.53883 -7 0.0 
7.73786 -7 0.0 
7.93689 -7 0.0 
8.13592 -7 0.0 
8.33495 -7 0.0 
8.53398 -7 0.0 
8.73301 -7 0.0 
8.93204 -7 0.0 
9.13107 -7 0.0 
9.3301 -7 0.0 
9.52913 -7 0.0 
9.72816 -7 0.0 
9.92718 -7 0.0 
10.1262 -7 0.0 
10.3252 -7 0.0 
10.5243 -7 0.0 
10.7233 -7 0.0 
10.9223 -7 0.0 
11.1214 -7 0.0 
11.3204 -7 0.0 
11.5194 -7 0.0 
11.7184 -7 0.0 
11.9175 -7 0.0 
12.1165 -7 0.0 
12.3155 -7 0.0 
12.5146 -7 0.0 
12.7136 -7 0.0 
12.9126 -7 0.0 
13.1117 -7 0.0 
13.3107 -7 0.0 
13.5097 -7 0.0 
13.7087 -7 0.0 
13.9078 -7 0.0 
14.1068 -7 0.0 
14.3058 -7 0.0 
14.5049 -7 0.0 
14.7039 -7 0.0 
14.9029 -7 0.0 
15.1019 -7 0.0 
15.301 -7 0.0 
15.5 -6.8 0.0 
15.5 -6.6 0.0 
15.5 -6.4 0.0 
15.5 -6.2 0.0 
15.5 -6 0.0 
15.5 -5.8 0.0 
15.5 -5.6 0.0 
15.5 -5.4 0.0 
15.5 -5.2 0.0 
15.5 -5 0.0 
15.5 -4.8 0.0 
15.5 -4.6 0.0 
15.5 -4.4 0.0 
15.5 -4.2 0.0 
15.5 -4 0.0 
15.5 -3.8 0.0 
15.5 -3.6 0.0 
15.5 -3.4 0.0 
15.5 -3.2 0.0 
15.5 -3 0.0 
15.5 -2.8 0.0 
15.5 -2.6 0.0 
15.5 -2.4 0.0 
15.5 -2.2 0.0 
15.5 -2 0.0 
15.5 -1.8 0.0 
15.5 -1.6 0.0 
15.5 -1.4 0.0 
15.5 -1.2 0.0 
15.5 -1 0.0 
15.5 -0.8 0.0 
15.5 -0.6 0.0 
15.5 -0.4 0.0 
15.5 -0.2 0.0 
15.5 -3.1193e-012 0.0 
15.5 0.2 0.0 
15.5 0.4 0.0 
15.5 0.6 0.0 
15.5 0.8 0.0 
15.5 1 0.0 
15.5 1.2 0.0 
15.5 1.4 0.0 
15.5 1.6 0.0 
15.5 1.8 0.0 
15.5 2 0.0 
15.5 2.2 0.0 
15.5 2.4 0.0 
15.5 2.6 0.0 
15.5 2.8 0.0 
15.5 3 0.0 
15.5 3.2 0.0 
15.5 3.4 0.0 
15.5 3.6 0.0 
15.5 3.8 0.0 
15.5 4 0.0 
15.5 4.2 0.0 
15.5 4.4 0.0 
15.5 4.6 0.0 
15.5 4.8 0.0 
15.5 5 0.0 
15.5 5.2 0.0 
15.5 5.4 0.0 
15.5 5.6 0.0 
15.5 5.8 0.0 
15.5 6 0.0 
15.5 6.2 0.0 
15.5 6.4 0.0 
15.5 6.6 0.0 
15.5 6.8 0.0 
15.301 7 0.0 
15.1019 7 0.0 
14.9029 7 0.0 
14.7039 7 0.0 
14.5049 7 0.0 
14.3058 7 0.0 
14.1068 7 0.0 
13.9078 7 0.0 
13.7087 7 0.0 
13.5097 7 0.0 
13.3107 7 0.0 
13.1117 7 0.0 
12.9126 7 0.0 
12.7136 7 0.0 
12.5146 7 0.0 
12.3155 7 0.0 
12.1165 7 0.0 
11.9175 7 0.0 
11.7184 7 0.0 
11.5194 7 0.0 
11.3204 7 0.0 
11.1214 7 0.0 
10.9223 7 0.0 
10.7233 7 0.0 
10.5243 7 0.0 
10.3252 7 0.0 
10.1262 7 0.0 
9.92718 7 0.0 
9.72816 7 0.0 
9.52913 7 0.0 
9.3301 7 0.0 
9.13107 7 0.0 
8.93204 7 0.0 
8.73301 7 0.0 
8.53398 7 0.0 
8.33495 7 0.0 
8.13592 7 0.0 
7.93689 7 0.0 
7.73786 7 0.0 
7.53883 7 0.0 
7.33981 7 0.0 
7.14078 7 0.0 
6.94175 7 0.0 
6.74272 7 0.0 
6.54369 7 0.0 
6.34466 7 0.0 
6.14563 7 0.0 
5.9466 7 0.0 
5.74757 7 0.0 
5.54854 7 0.0 
5.34951 7 0.0 
5.15049 7 0.0 
4.95146 7 0.0 
4.75243 7 0.0 
4.5534 7 0.0 
4.35437 7 0.0 
4.15534 7 0.0 
3.95631 7 0.0 
3.75728 7 0.0 
3.55825 7 0.0 
3.35922 7 0.0 
3.16019 7 0.0 
2.96117 7 0.0 
2.76214 7 0.0 
2.56311 7 0.0 
2.36408 7 0.0 
2.16505 7 0.0 
1.96602 7 0.0 
1.76699 7 0.0 
1.56796 7 0.0 
1.36893 7 0.0 
1.1699 7 0.0 
0.970874 7 0.0 
0.771845 7 0.0 
0.572816 7 0.0 
0.373786 7 0.0 
0.174757 7 0.0 
-0.0242718 7 0.0 
-0.223301 7 0.0 
-0.42233 7 0.0 
-0.621359 7 0.0 
-0.820388 7 0.0 
-1.01942 7 0.0 
-1.21845 7 0.0 
-1.41748 7 0.0 
-1.6165 7 0.0 
-1.81553 7 0.0 
-2.01456 7 0.0 
-2.21359 7 0.0 
-2.41262 7 0.0 
-2.61165 7 0.0 
-2.81068 7 0.0 
-3.00971 7 0.0 
-3.20874 7 0.0 
-3.40777 7 0.0 
-3.6068 7 0.0 
-3.80583 7 0.0 
-4.00485 7 0.0 
-4.20388 7 0.0 
-4.40291 7 0.0 
-4.60194 7 0.0 
-4.80097 7 0.0 
-5 6.8 0.0 
-5 6.6 0.0 
-5 6.4 0.0 
-5 6.2 0.0 
-5 6 0.0 
-5 5.8 0.0 
-5 5.6 0.0 
-5 5.4 0.0 
-5 5.2 0.0 
-5 5 0.0 
-5 4.8 0.0 
-5 4.6 0.0 
-5 4.4 0.0 
-5 4.2 0.0 
-5 4 0.0 
-5 3.8 0.0 
-5 3.6 0.0 
-5 3.4 0.0 
-5 3.2 0.0 
-5 3 0.0 
-5 2.8 0.0 
-5 2.6 0.0 
-5 2.4 0.0 
-5 2.2 0.0 
-5 2 0.0 
-5 1.8 0.0 
-5 1.6 0.0 
-5 1.4 0.0 
-5 1.2 0.0 
-5 1 0.0 
-5 0.8 0.0 
-5 0.6 0.0 
-5 0.4 0.0 
-5 0.2 0.0 
-5 3.1193e-012 0.0 
-5 -0.2 0.0 
-5 -0.4 0.0 
-5 -0.6 0.0 
-5 -0.8 0.0 
-5 -1 0.0 
-5 -1.2 0.0 
-5 -1.4 0.0 
-5 -1.6 0.0 
-5 -1.8 0.0 
-5 -2 0.0 
-5 -2.2 0.0 
-5 -2.4 0.0 
-5 -2.6 0.0 
-5 -2.8 0.0 
-5 -3 0.0 
-5 -3.2 0.0 
-5 -3.4 0.0 
-5 -3.6 0.0 
-5 -3.8 0.0 
-5 -4 0.0 
-5 -4.2 0.0 
-5 -4.4 0.0 
-5 -4.6 0.0 
-5 -4.8 0.0 
-5 -5 0.0 
-5 -5.2 0.0 
-5 -5.4 0.0 
-5 -5.6 0.0 
-5 -5.8 0.0 
-5 -6 0.0 
-5 -6.2 0.0 
-5 -6.4 0.0 
-5 -6.6 0.0 
-5 -6.8 0.0 
8.41365 -0.0150895 0.0 
1.70542 0.290156 0.0 
5.04263 -2.63896 0.0 
5.21284 2.77039 0.0 
11.3717 2.87144 0.0 
11.3889 -2.84809 0.0 
-0.89222 -2.89182 0.0 
-1.04288 3.0536 0.0 
8.11234 -3.68352 0.0 
2.13436 3.75993 0.0 
8.25559 3.75844 0.0 
2.08242 -3.86981 0.0 
-1.88619 0.0596801 0.0 
12.4686 -0.00913525 0.0 
5.6738 0.0288943 0.0 
13.1037 4.5806 0.0 
13.0907 -4.58887 0.0 
-2.59844 -4.62034 0.0 
6.09142 -4.70624 0.0 
-2.69506 4.69463 0.0 
2.82941 -1.71771 0.0 
4.13444 4.74325 0.0 
10.1156 -4.81231 0.0 
7.07596 -1.75288 0.0 
10.2506 4.79281 0.0 
7.21083 1.82703 0.0 
6.33519 4.82454 0.0 
10.4364 0.879718 0.0 
3.77541 1.09164 0.0 
0.103412 -4.81604 0.0 
0.211995 4.82112 0.0 
-2.82132 -1.89586 0.0 
9.4268 -1.92724 0.0 
13.3451 1.96473 0.0 
13.3735 -1.92316 0.0 
-0.00703577 -0.937695 0.0 
-2.87931 1.95315 0.0 
3.94481 -4.88089 0.0 
-0.144577 1.19456 0.0 
9.00385 2.08844 0.0 
1.46144 2.05245 0.0 
0.876611 -2.52457 0.0 
11.0356 -1.13244 0.0 
7.64166 -5.29124 0.0 
3.51917 2.75492 0.0 
4.11685 -0.564126 0.0 
2.55787 5.32805 0.0 
8.72227 5.34462 0.0 
11.6377 -5.3597 0.0 
1.62783 -5.40773 0.0 
11.6957 5.38674 0.0 
-1.27418 5.40456 0.0 
-3.4027 -0.414984 0.0 
13.9272 -0.501627 0.0 
3.55205 -3.36339 0.0 
6.42945 -3.16813 0.0 
0.476372 3.2917 0.0 
6.63655 3.25774 0.0 
-1.26569 -5.41962 0.0 
-3.46923 -3.33334 0.0 
-3.45794 3.36469 0.0 
11.8768 1.42088 0.0 
13.9206 3.34697 0.0 
13.9523 -3.35867 0.0 
9.94137 3.26753 0.0 
-1.45465 -1.48115 0.0 
1.47837 -1.19073 0.0 
9.58341 -3.37763 0.0 
7.07032 0.413059 0.0 
5.80532 1.43508 0.0 
9.80217 -0.374825 0.0 
5.66655 -1.4073 0.0 
-1.47981 1.68963 0.0 
14.0371 5.59199 0.0 
14.0633 -5.60259 0.0 
-3.54432 -5.58681 0.0 
9.01047 -5.60381 0.0 
5.23867 5.63037 0.0 
5.0616 -5.63376 0.0 
14.1283 0.858352 0.0 
1.27586 5.65374 0.0 
-3.61862 5.58144 0.0 
7.37234 5.64926 0.0 
4.91339 -3.97257 0.0 
12.648 3.30021 0.0 
12.643 -3.32301 0.0 
-3.67439 0.884921 0.0 
-2.1169 -3.37614 0.0 
2.94406 -5.72558 0.0 
8.27735 -1.30334 0.0 
5.25193 4.05631 0.0 
-0.972153 -4.16312 0.0 
2.84965 -0.381423 0.0 
2.47981 1.31786 0.0 
11.354 4.16024 0.0 
11.2537 -4.13573 0.0 
12.0778 -1.82545 0.0 
0.835117 -3.76141 0.0 
-2.20798 3.56282 0.0 
10.3565 2.19026 0.0 
12.7906 -5.7765 0.0 
4.08429 -1.84457 0.0 
0.478341 0.187737 0.0 
2.09015 -2.655 0.0 
12.8648 5.78371 0.0 
-0.842943 4.2873 0.0 
6.52635 -5.77589 0.0 
8.21367 1.18472 0.0 
7.97065 -2.47718 0.0 
-0.70075 0.0375302 0.0 
-2.42617 -5.81451 0.0 
11.2711 0.037211 0.0 
3.28326 3.92593 0.0 
3.67164 5.83884 0.0 
-3.80777 -4.42659 0.0 
-2.39537 5.8217 0.0 
10.5522 -5.80566 0.0 
9.74593 5.83714 0.0 
7.13723 -4.26674 0.0 
-3.83284 4.48572 0.0 
9.00563 -4.42235 0.0 
14.3194 4.45063 0.0 
14.3201 -4.44108 0.0 
6.6137 -0.627155 0.0 
9.25924 0.781814 0.0 
8.01553 2.64102 0.0 
-0.21233 2.32162 0.0 
4.87988 0.822714 0.0 
0.59295 -5.8735 0.0 
-0.205096 5.86017 0.0 
7.43745 4.51253 0.0 
-3.87336 -1.44249 0.0 
10.5036 -2.13119 0.0 
1.28147 4.52237 0.0 
14.3773 -1.53238 0.0 
-0.155086 -2.05718 0.0 
9.18643 4.38202 0.0 
2.41168 2.69977 0.0 
4.345 2.05469 0.0 
14.3917 2.31766 0.0 
4.26261 3.54893 0.0 
6.26666 5.91856 0.0 
-3.90004 2.3817 0.0 
13.0331 0.912242 0.0 
2.92636 -4.61154 0.0 
-2.41426 -0.900079 0.0 
-2.55861 0.924885 0.0 
12.7773 -1.03887 0.0 
1.02345 1.08869 0.0 
4.05933 -5.93056 0.0 
10.7888 5.98195 0.0 
12.3583 2.37508 0.0 
-0.433601 -5.98372 0.0 
-0.194603 -3.61418 0.0 
-2.02342 2.52947 0.0 
-1.92482 -2.36052 0.0 
6.30193 2.30951 0.0 
-3.9608 -2.48383 0.0 
7.57617 -0.552954 0.0 
14.5164 -2.52189 0.0 
10.5649 -3.45905 0.0 
8.95631 3.06939 0.0 
6.18503 -2.21818 0.0 
1.43765 3.03174 0.0 
12.2059 -4.19047 0.0 
8.90271 -2.71243 0.0 
3.00195 0.500528 0.0 
5.04173 -0.66713 0.0 
-1.758 4.60697 0.0 
-1.23485 0.78611 0.0 
8.1911 -6.06865 0.0 
10.1225 -1.30205 0.0 
11.8864 -0.748107 0.0 
3.21757 1.86677 0.0 
7.34848 -3.14924 0.0 
3.44068 -2.46025 0.0 
0.639695 -1.61175 0.0 
9.18019 -1.0304 0.0 
1.02221 -4.6822 0.0 
12.1787 4.61714 0.0 
2.07353 6.09367 0.0 
8.13151 6.12041 0.0 
5.80928 -3.81858 0.0 
14.5991 0.0970642 0.0 
0.553511 1.85722 0.0 
-1.30761 -0.615287 0.0 
9.75174 1.54593 0.0 
8.12005 -4.57325 0.0 
-4.10751 0.110892 0.0 
2.12716 -6.12848 0.0 
9.7338 -6.11698 0.0 
4.49813 6.10545 0.0 
10.5289 3.92295 0.0 
4.15707 0.309293 0.0 
-1.71882 -4.63645 0.0 
6.66538 1.12562 0.0 
-0.018476 4.01749 0.0 
3.2527 4.80601 0.0 
11.0141 1.54829 0.0 
2.71665 -3.29133 0.0 
-2.78778 -2.75425 0.0 
6.09899 4.0067 0.0 
7.51111 3.34852 0.0 
11.9975 -6.09922 0.0 
0.797819 -0.653925 0.0 
7.32054 -6.12934 0.0 
13.2928 0.0843629 0.0 
5.20693 -4.78417 0.0 
0.569525 6.14444 0.0 
2.14326 4.63298 0.0 
12.6538 -2.47507 0.0 
5.74088 -6.14627 0.0 
3.42481 -1.07544 0.0 
[...]
<PointData>
  <DataArray type = "Float32" Name="LevelSetLayer1" format="ascii">
-8.59901
-16.1018
-16.1007
-8.58612
-8.48461
-8.37338
-8.26544
-8.16093
-8.05998
-7.96273
-7.86931
-7.77986
-7.69452
-7.6134
-7.53645
-7.46402
-7.39623
-7.33322
-7.27511
-7.22202
-7.17387
-7.13088
-7.09321
-7.06087
-7.03382
-7.01229
-6.9961
-6.98538
-6.98009
-6.98015
-6.98544
-6.99579
-7.00266
-6.99923
-7.00144
-7.00932
-7.02282
-7.04193
-7.0666
-7.09676
-7.13235
-7.17329
-7.21949
-7.27073
-7.32692
-7.38805
-7.45399
-7.52462
-7.59981
-7.67942
-7.76332
-7.85137
-7.94343
-8.03936
-8.13903
-8.24231
-8.34905
-8.45913
-8.57241
-8.68878
-8.80811
-8.93028
-9.05517
-9.18269
-9.31271
-9.44513
-9.57986
-9.7168
-9.85585
-9.99694
-10.14
-10.2849
-10.4315
-10.5799
-10.7299
-10.8815
-11.0346
-11.1892
-11.3451
-11.5024
-11.6609
-11.8207
-11.9817
-12.1437
-12.3069
-12.4711
-12.6363
-12.8024
-12.9695
-13.1375
-13.3063
-13.476
-13.6465
-13.8177
-13.9896
-14.1623
-14.3356
-14.5096
-14.6843
-14.8595
-15.0354
-15.2118
-15.3888
-15.5663
-15.7443
-15.9228
-16.0158
-15.9319
-15.8501
-15.7704
-15.6928
-15.6174
-15.5443
-15.4733
-15.4046
-15.3383
-15.2742
-15.2125
-15.1532
-15.0964
-15.0419
-14.99
-14.9405
-14.8936
-14.8492
-14.8073
-14.7681
-14.7315
-14.6975
-14.6661
-14.6375
-14.6114
-14.5881
-14.5675
-14.5497
-14.5345
-14.5221
-14.5125
-14.5056
-14.5014
-14.5
-14.5014
-14.5055
-14.5124
-14.522
-14.5344
-14.5495
-14.5673
-14.5879
-14.6111
-14.6371
-14.6658
-14.6971
-14.731
-14.7676
-14.8068
-14.8486
-14.893
-14.9399
-14.9893
-15.0413
-15.0957
-15.1525
-15.2118
-15.2734
-15.3375
-15.4038
-15.4724
-15.5434
-15.6165
-15.6919
-15.7694
-15.8491
-15.9309
-16.0148
-15.9217
-15.7432
-15.5651
-15.3876
-15.2106
-15.0342
-14.8584
-14.6831
-14.5084
-14.3344
-14.1611
-13.9884
-13.8164
-13.6452
-13.4747
-13.305
-13.1362
-12.9682
-12.8011
-12.6349
-12.4697
-12.3055
-12.1423
-11.9802
-11.8192
-11.6595
-11.5009
-11.3436
-11.1876
-11.0331
-10.8799
-10.7283
-10.5783
-10.4299
-10.2832
-10.1383
-9.9952
-9.85409
-9.71501
-9.57805
-9.44329
-9.31084
-9.1808
-9.05326
-8.92833
-8.80614
-8.68678
-8.57039
-8.45707
-8.34697
-8.2402
-8.1369
-8.0372
-7.94124
-7.84916
-7.76108
-7.67716
-7.59753
-7.52232
-7.45166
-7.38564
-7.32356
-7.26527
-7.21082
-7.16027
-7.11368
-7.07112
-7.03264
-6.99833
-6.96827
-6.9425
-6.92112
-6.90421
-6.89181
-6.88414
-6.88141
-6.88369
-6.89103
-6.90345
-6.92093
-6.94344
-6.97096
-7.00346
-7.04089
-7.08322
-7.13037
-7.1823
-7.23891
-7.30015
-7.3659
-7.4361
-7.51063
-7.58941
-7.67235
-7.75931
-7.85019
-7.94483
-8.04323
-8.14511
-8.25052
-8.35916
-8.47109
-8.42472
-8.26501
-8.10709
-7.95106
-7.79694
-7.64489
-7.49508
-7.34767
-7.20279
-7.06061
-6.9211
-6.7846
-6.65131
-6.52143
-6.39517
-6.27275
-6.15439
-6.04013
-5.93035
-5.82537
-5.72545
-5.63087
-5.54189
-5.4588
-5.38186
-5.31133
-5.24749
-5.1903
-5.14017
-5.09739
-5.06217
-5.03464
-5.01495
-5.00319
-4.9994
-5.00361
-5.0158
-5.0359
-5.06384
-5.09947
-5.14263
-5.19309
-5.25038
-5.31459
-5.38546
-5.46274
-5.54616
-5.63544
-5.73032
-5.83051
-5.93576
-6.04579
-6.16035
-6.27919
-6.40208
-6.52878
-6.65907
-6.79276
-6.92964
-7.06953
-7.21226
-7.35765
-7.50554
-7.65564
-7.80798
-7.96242
-8.11886
-8.27717
-8.43726
-7.41367
-0.762292
-4.82841
-5.04145
-10.7615
-10.7726
-3.01779
-3.1895
-8.01017
-3.92498
-8.17069
-4.01953
-1.88637
-11.4686
-4.67388
-12.941
-12.9327
-5.29611
-6.93418
-5.39196
-2.51028
-5.68431
-10.3084
-6.3241
-10.4179
-6.47363
-7.19225
-9.47722
-2.98192
-4.79559
-4.70456
-3.39847
-8.64465
-12.5003
-12.5222
-0.91962
-3.47293
-5.7015
-1.14138
-8.27151
-2.09569
-2.52641
-10.0994
-8.49247
-3.73215
-3.16771
-5.54805
-9.3907
-11.9122
-5.44414
-11.9751
-5.50029
-3.42796
-12.937
-4.22299
-6.2868
-3.17458
-6.50964
-5.5552
-4.80965
-4.81466
-10.9691
-13.3467
-13.381
-9.51929
-2.07444
-1.28438
-9.22451
-6.08428
-5.01468
-8.8102
-4.8745
-2.23364
-14.1853
-14.2145
-6.61217
-9.77671
-7.04652
-6.94621
-13.1562
-5.59499
-6.6335
-8.51509
-5.57726
-12.1061
-12.1083
-3.77763
-3.98079
-6.0478
-7.39335
-5.87558
-4.26489
-1.88882
-1.98074
-11.1581
-11.0568
-11.2274
-3.76388
-4.1723
-9.60913
-13.1301
-3.59442
-0.0742068
-2.87125
-13.1988
-4.31104
-7.99473
-7.3101
-7.39815
-0.700888
-6.29395
-10.2712
-4.54054
-6.41991
-5.83695
-6.26368
-11.1787
-10.5142
-7.47538
-5.8873
-9.14649
-14.0429
-14.0413
-5.64877
-8.29604
-7.49574
-2.25618
-3.96589
-5.87346
-5.76581
-7.86082
-4.13365
-9.73986
-4.47526
-13.4649
-2.04754
-9.28487
-3.04548
-3.92501
-13.5906
-4.81983
-7.92164
-4.56409
-12.0675
-4.99887
-2.57699
-2.71785
-11.8231
-1.05233
-6.67426
-11.4712
-11.6038
-5.98341
-3.60264
-3.22534
-3.04341
-5.78261
-4.67466
-6.59949
-13.7499
-10.1715
-8.52739
-5.64007
-3.03876
-11.9643
-8.35565
-2.06328
-4.09662
-4.89701
-1.45794
-9.41039
-9.21518
-10.9122
-2.8979
-7.08722
-3.46639
-1.62
-8.24498
-4.68149
-12.0942
-6.16568
-9.39695
-6.14168
-13.5994
-1.74486
-1.44517
-8.88701
-8.46292
-4.10827
-6.23188
-10.6636
-7.0355
-10.3044
-3.17207
-4.93746
-5.77588
-3.91402
-5.30665
-10.1329
-3.7132
-3.91737
-6.48409
-7.32113
-12.5762
-0.661025
-8.8053
-12.2931
-6.37169
-6.0288
-4.76444
-11.914
-7.76324
-2.6531
-5.11453
-8.61797
-12.6417
-12.6914
-3.29586
-13.7416
-4.70016
-4.00373
-2.09819
-4.32256
-2.72374
-6.46555
-11.0986
-4.81911
-6.29464
-1.08223
-4.43956
-10.1013
-6.24213
-10.8832
-15.0088
-14.996
-12.4759
-6.40407
-7.72883
-7.46334
-13.9632
-9.25846
-11.1835
-4.56587
-2.83304
-5.62147
-4.25239
-4.73325
-6.198
-12.8661
-12.8753
-5.60147
-12.7181
-4.9605
-13.7306
-14.1739
-14.1754
-6.66322
-11.4081
-14.0065
-5.80003
-4.96774
-9.42998
-9.03992
-6.89711
-5.55335
-10.5549
-4.86584
-6.9436
-7.48409
-12.567
-3.95915
-9.86707
-3.69651
-11.7197
-6.36553
-6.62643
-10.024
-6.82246
-2.44816
-3.17807
-11.4032
-11.9803
-2.37119
-14.6097
-14.6519
-7.90448
-3.71744
-3.74479
-3.31405
-10.7396
-6.61312
-2.52056
-2.50072
-5.31227
-1.50895
-13.431
-9.89743
-7.10478
-1.55735
-4.07408
-3.9043
-2.72158
-7.21196
-8.72815
-7.17536
-6.46502
-8.18464
-7.72593
-2.5949
-13.4843
-4.42738
-14.0607
-8.62141
-1.78867
-6.25174
-6.72155
-10.2525
-5.99672
-4.93362
-5.56993
-5.22522
-3.71891
-6.11032
-6.4028
-10.1519
-8.99104
-7.28915
-4.65497
-1.95508
-2.30211
-9.50202
-4.40992
-1.73465
-13.0214
-6.85462
-4.57203
-6.99866
-8.76808
-6.74746
-12.3007
-5.33592
-7.9775
-5.30904
-0.446211
-10.0664
-5.49068
-10.6458
-9.69627
-12.1698
-7.84102
-3.80461
-12.5258
-6.26432
-5.58518
-5.23881
-3.63415
-1.43519
-2.97446
-0.258414
-4.19625
-6.02132
-11.6361
-4.30566
-5.03553
-4.20106
-7.61325
-11.2892
-5.50985
-13.8331
-11.2264
-10.7848
-8.77595
-5.64786
-6.27509
-3.38796
-0.885356
-6.40899
-6.23556
-0.135776
-7.6523
-8.74168
-4.05779
-5.46091
-4.45792
-5.28647
-10.0854
-2.1113
-13.164
-4.42296
-12.9285
-11.853
-13.5879
-6.33043
-7.96361
-3.54669
-11.4154
-5.2477
-14.2088
-5.05538
-13.4106
-4.73681
-4.7558
-5.32837
-0.749993
-5.04592
-10.5322
-11.4198
-4.1661
-4.30843
-12.2874
-5.22839
-6.59056
-9.1499
-1.39312
-3.12233
-6.11804
-10.7915
-10.7268
-2.42891
-5.7208
-3.26961
-5.69775
-13.9941
-13.4997
-2.0442
-13.9008
-6.087
-13.23
-3.11446
-5.2208
-10.2424
-3.66527
-7.73289
-7.52368
-8.59054
-9.47152
-1.05882
-13.3089
-11.2701
-3.00632
-5.88121
-7.02203
-13.0023
-10.3225
-10.8362
-14.566
-4.88953
-5.24562
-9.60433
-8.05525
-8.03834
-9.32778
-5.87071
-2.55723
-6.50941
-3.52585
-1.31116
-4.41871
-6.77205
-3.72234
-6.71764
-5.8814
-3.44633
-8.05063
-7.54196
-6.12197
-3.33094
-2.67556
-4.0722
-8.30509
-6.28852
-7.34957
-5.47003
-10.6841
-14.6037
-11.3064
-2.64482
-6.16235
-5.0125
-10.8041
-11.4926
-14.5569
-14.553
-1.68265
-8.90136
-0.547982
-9.21401
-9.75486
-5.30654
-8.06406
-2.9739
-12.559
-12.4676
-11.6634
-0.7186
-6.42078
-14.0505
-2.15199
-4.58715
-4.87286
-2.64461
-7.19024
-13.7115
-13.9656
-5.90464
-12.4664
-4.35134
-13.2775
-6.81736
-3.3751
-1.50737
-7.39224
-2.56663
-12.4212
-6.31869
-4.28772
-9.70855
-3.81256
-7.72842
-9.96572
-7.69227
-7.17646
-4.06689
-3.22979
-2.75193
-4.44128
-9.17354
-7.15492
-6.78646
-8.55912
-7.36376
-5.54148
-5.04213
-11.4563
-3.19307
-11.5331
-5.23625
-5.55585
-2.32856
-5.50962
-12.0667
-15.0392
-15.0424
-7.49892
-3.66424
-6.88655
-11.6773
-2.88175
-3.78022
-13.1614
-9.59222
-10.6976
-9.84132
-8.38623
-4.45722
-6.9728
-6.95998
-11.8441
-3.21972
-13.4451
-4.29164
-1.55201
-9.39824
-6.22889
-11.5794
-4.5853
-8.75158
-6.87209
-2.49425
-4.46645
-5.20973
-9.05652
-7.56059
-2.33148
-3.81721
-6.02344
-2.48821
-8.32171
-7.3815
-6.68898
-3.5869
-8.69101
-3.37816
-14.1152
-7.06708
-8.28963
-5.02701
-7.93584
-1.01629
-4.87301
-12.6141
-2.78288
-14.0195
-6.62079
-10.0466
-3.13893
-5.79737
-3.42091
-12.9439
-4.23344
-2.09281
-11.8164
-2.97589
-8.70056
-9.94936
-5.93651
-3.99194
-6.21491
-3.61479
-1.23687
-4.25257
-1.49707
-12.0892
-3.52408
-5.73582
-1.16937
-11.1909
-8.6885
-3.44571
-4.56593
-8.22811
-10.5808
-1.85953
-4.49468
-8.81368
-6.56577
-8.56457
-8.78161
-3.56387
-8.89567
-4.20422
-9.87161
-11.427
-12.436
-6.49821
-5.20567
-8.95736
-12.5977
-13.7396
-4.65864
-11.7218
-1.69908
-12.9845
-11.8867
-13.205
-6.44705
-4.44357
-7.10591
-7.94201
-5.3155
-5.86051
-5.36479
-7.43656
-5.14531
-6.24293
-9.83066
-10.2692
-6.03063
-4.64053
-9.50761
-12.1004
-10.7467
-2.63693
-10.5511
-6.99293
-12.4806
-9.60596
-4.30444
-3.23071
-6.90016
-1.1352
-14.2279
-3.66264
-13.8023
-4.00258
-7.87172
-12.9488
-6.63947
-9.86204
-14.2119
-13.4037
-11.8957
-6.45789
-4.3003
-5.11975
-1.7694
-6.56675
-5.99677
-7.04513
-7.1566
-6.43664
-11.402
-9.44446
-10.4605
-4.83042
-5.20273
-6.60728
-5.67213
-4.47299
-5.13784
-12.2137
-2.55448
-2.78871
-5.9453
-0.32161
-10.3183
-5.1848
-2.0494
-5.92797
-4.67041
-1.88702
-13.6244
-2.15479
-7.04323
-15.4494
-15.4575
-5.2255
-3.87335
-4.6397
-12.4815
-2.09366
-7.93103
-7.46556
-12.1996
-2.9172
-6.51488
-6.58698
-5.69484
-14.0725
-4.099
-10.1296
-5.7154
-11.1494
-12.2274
-6.61154
-8.93086
-14.7883
-14.7766
-5.39658
-5.30901
-6.05235
-5.75302
-2.08409
-13.7548
-13.5346
-4.62172
-4.52696
-5.70617
-2.58339
-3.63033
-13.4356
-14.4253
-6.55098
-1.6414
-13.4001
-5.4593
-14.0207
-6.41555
-10.1992
-6.31724
-11.8958
-12.3269
-4.84269
-9.01376
-4.25415
-6.79149
-7.56996
-6.03244
-8.47829
-7.69467
-5.64742
-4.42188
-12.6312
-8.97818
-3.21172
-7.82947
-0.664488
-10.2401
-10.8607
-5.1345
-12.5567
-9.59951
-1.57641
-8.13122
-5.15245
-5.42815
-12.8351
-4.20125
-6.90172
-4.54406
-2.97313
-2.86542
-5.10508
-3.7573
-2.96708
-13.8438
-9.59824
-5.74539
-5.39933
-7.94103
-0.974299
-4.37705
-3.66466
-7.75259
-12.7871
-3.95633
-6.63481
-6.8778
-6.15534
-5.9736
-6.80525
-3.94173
-6.58746
-4.54012
-7.34447
-5.94946
-6.78019
-8.58171
-9.99236
-5.46113
-9.65386
-6.90098
-7.31779
-5.1418
-1.92854
-8.20953
-9.24772
-8.41311
-6.45272
-9.24951
-9.15039
-2.72724
-3.81084
-5.26329
-5.3076
-4.70544
-9.90235
-6.68588
-11.0328
-10.4403
-6.20806
-11.5254
-3.97273
-1.07009
-4.0422
-13.4425
-2.36914
-4.98988
-4.19699
-4.07652
-11.6942
-6.27543
-2.14177
-10.6632
-3.41417
-7.35146
-5.67185
-3.86563
-13.556
-3.39437
-6.87451
-12.9613
-8.26785
-2.26574
-12.0624
-6.57956
-5.44197
-8.98212
-3.46343
-2.09581
-2.49775
-12.1061
-5.83027
-0.451848
-7.60411
-4.29996
-5.18506
-14.6748
-14.6794
-4.27694
-8.92944
-11.1242
-1.9329
-13.0527
-5.79909
-6.44326
-14.4987
-4.93629
-13.0514
-4.85893
-4.86383
-4.4128
-7.02169
-13.9362
-6.14748
-10.8873
-12.6825
-6.44205
-5.93972
-7.80357
-4.69069
-8.39004
-4.33659
-9.40674
-10.4118
-12.9277
-10.5768
-7.27636
-10.447
-3.51566
-12.0687
-5.55599
-9.03601
-14.2325
-6.46065
-11.1825
-5.85218
-2.80696
-9.22513
-12.7516
-12.4311
-14.2706
-5.48648
-13.5882
-1.24522
-2.96349
-6.95859
-8.03137
-4.63276
-8.2823
-4.8905
-13.2396
-15.0007
-3.10493
-9.80522
-14.2973
-5.83799
-9.64239
-10.8249
-6.75296
-4.51032
-10.9774
-12.9021
-6.26502
-10.8097
-2.45171
-9.16303
-5.19992
-8.43251
-1.52434
-11.8512
-3.12119
-1.91944
-5.70544
-9.03564
-6.82162
-14.166
-2.69799
-4.12218
-4.44088
-1.95026
-2.57318
-4.87547
-3.52142
-5.94685
-15.0097
-10.4504
-1.77122
-13.8332
-10.6179
-9.04441
-8.13305
-5.98656
-6.88581
-6.66001
-2.28333
-13.0328
-4.15638
-10.477
-12.9009
-10.7975
-6.0085
-12.4483
-7.20338
-7.6832
-6.21565
-4.60043
-9.94354
-7.52751
-1.08287
-1.0769
-14.2965
-3.72466
-12.5809
-10.0887
-11.1858
-3.8142
-14.5976
-7.70764
-7.3501
-2.78864
-6.8402
-7.57459
-14.3242
-15.3258
-15.3272
-5.46407
-14.6068
-8.34918
-7.31835
-7.03133
-8.38346
-6.55256
-3.24366
-3.5056
-14.1223
-4.66024
-7.72232
-7.29919
-11.0772
-3.24105
-4.86481
-5.24899
-4.74939
-7.69072
-8.32806
-6.65878
-6.5191
-4.02886
-11.1902
-12.0323
-12.2098
-12.654
-11.0425
-11.7098
-2.41503
-4.99799
-4.55513
-3.72923
-3.57573
-3.92787
-9.16761
-0.0370376
-3.04474
-0.711275
-4.04821
-11.5462
-1.47431
-10.3093
-6.03845
-8.18924
-2.14718
-7.89187
-6.37984
-3.4246
-5.38567
-11.0646
-4.77165
-8.556
-5.96958
-3.76573
-5.64445
-13.8713
-10.1653
-1.44836
-11.3702
-7.37286
-3.36624
-5.59434
-3.97451
-7.5821
-6.99657
-5.62424
-8.73309
-13.7835
-1.31964
-9.36691
-11.5913
-6.2575
-6.67387
-13.5845
-8.43101
-5.77167
-2.54086
-7.68448
-9.95748
-7.04476
-15.0664
-15.0463
-5.14036
-4.6848
-6.00062
-7.91754
-6.23084
-4.02942
-10.0815
-5.99571
-1.30002
-4.33254
-6.25766
-9.51797
-9.49601
-2.5645
-11.5555
-13.5366
-4.73201
-14.0645
-2.50128
-13.0418
-4.18289
-13.2821
-4.31588
-12.0695
-2.59196
-1.60308
-6.08306
-1.8731
-5.87195
-3.78374
-7.28045
-6.42499
-11.7868
-4.73928
-6.44168
-11.5843
-5.62972
-13.6654
-14.2984
-3.04336
-4.81315
-9.89423
-10.3484
-14.429
-3.69799
-5.54822
-10.5951
-3.27682
-6.62224
-3.09893
-12.9818
-6.11948
-13.4891
-5.18951
-2.27221
-2.42647
-12.2513
-12.1024
-2.94333
-1.59714
-10.2233
-7.57823
-4.88495
-12.7518
-7.5512
-2.87103
-13.8462
-7.19457
-11.92
-6.22991
-5.91049
-5.88809
-0.635762
-2.62355
-0.53391
-12.581
-3.47053
-4.8068
-3.74645
-1.40485
-4.98627
-6.88593
-2.81901
-0.595214
-7.35173
-5.26577
-4.93538
-7.69143
-0.368812
-6.68237
-5.71958
-3.9358
-12.189
-14.2381
-6.32695
-8.77299
-3.89141
-4.70844
-9.07574
-6.77973
-5.13372
-4.3385
-7.71887
-4.53042
-8.30199
-5.11392
-6.01936
-10.9855
-4.46012
-7.533
-0.800875
-3.33313
-13.2336
-14.4562
-3.90086
-5.58831
-6.77491
-5.0036
-5.44392
-9.00219
-2.59557
-6.60058
-4.7011
-7.08811
-4.87704
-2.78335
-7.11424
-8.23024
-0.284014
-3.49246
-6.61363
-10.4372
-9.93538
-5.10413
-5.17223
-13.2358
-4.44213
-12.0291
-5.07662
-13.0636
-9.09003
-12.7607
-5.93463
-0.276341
-6.64146
-5.29704
-9.47772
-5.72215
-7.99137
-2.19742
-6.66423
-5.64222
-1.14532
-6.36162
-9.94095
-7.92881
-5.93367
-1.68258
-4.82256
-11.6263
-7.10068
-14.4228
-3.3578
-3.04523
-8.05028
-6.54935
-11.7113
-3.55686
-4.91734
-4.66655
-10.8191
-7.04235
-3.90045
-6.98554
-6.16501
-13.7846
-13.8207
-10.3748
-4.00777
-6.64961
-11.6884
-6.62945
-8.03356
-11.074
-2.24968
-7.60814
-1.40032
-1.67481
-4.3099
-2.28757
-3.74522
-5.70916
-2.35952
-9.08775
-2.25549
-9.41891
-5.26033
-5.46347
-12.1871
-8.25536
-5.4737
-6.2728
-6.97096
-14.002
-2.94736
-2.32974
-2.15607
-11.1611
-5.71909
-9.80688
-0.128556
-13.3743
-2.97343
-10.3802
-11.4179
-5.35142
-6.0797
-7.66939
-9.69923
-14.5713
-8.66144
-6.20178
-14.6505
-9.56815
-13.3413
-5.27442
-10.5683
-12.8534
-7.96378
-6.21031
-2.88573
-14.4178
-8.54321
-10.3562
-3.30782
-7.14066
-11.4863
-4.50218
-8.057
-4.89954
-7.38699
-3.66038
-11.2856
-8.1429
-1.77814
-12.5928
-10.482
-5.31872
-4.34547
-0.838286
-6.51525
-2.75751
-5.67184
-7.70553
-14.4403
-11.4797
-3.20844
-2.3787
-3.33879
-11.6755
-3.69668
-7.86853
-2.44911
-6.58294
-11.3268
-5.82599
-13.8295
-12.4351
-12.9136
-9.42127
-7.16756
-5.5591
-4.72588
-3.27961
-11.16
-2.22385
-6.68081
-6.72296
-3.89939
-11.4353
-6.09833
-5.90627
-11.0652
-10.963
-0.410151
-11.0701
-4.18547
-3.34053
-6.37029
-4.3248
-10.4524
-5.11269
-7.23298
-4.37744
-1.38237
-3.11345
-6.56047
-5.46709
-8.54273
-6.25053
-5.96452
-1.21536
-10.4018
-6.8438
-9.41028
-9.10899
-5.72125
-6.51932
-13.2372
-8.63901
-7.14982
-3.78867
-3.97378
-12.8128
-9.8917
-12.9262
-10.9417
-12.5631
-3.84968
-3.46166
-5.48207
-3.72282
-2.84635
-12.3603
-5.19066
-9.72903
-3.02305
-3.27549
-9.2703
-10.8445
-4.39006
-10.938
-6.2386
-5.23609
-11.4195
-12.3378
-14.3364
-5.79082
-7.39532
-7.20611
-5.00579
-10.5874
-1.73829
-13.9417
-14.1673
-4.51802
-11.3014
-11.7698
-4.04083
-13.0993
-3.20968
-1.70325
-5.89651
-6.60644
-4.73373
-3.50023
-9.30861
-7.27799
-6.4099
-5.2407
-8.35783
-12.6283
-11.9051
-4.48202
-10.2927
-3.84602
-14.1716
-2.99229
-8.06988
-7.5321
-7.2386
-5.13385
-7.89568
-6.07113
-13.5234
-3.53477
-5.22541
-8.97155
-13.8406
-3.22942
-8.74226
-6.12319
-8.63674
-6.8626
-4.8276
-12.2813
-3.50696
-5.66592
-9.74816
-0.878448
-6.63384
-12.2197
-11.7828
-5.94946
-11.6907
-9.79701
-7.72416
-4.70685
-4.84328
-4.23175
-11.8619
-6.0028
-14.0689
-4.03332
-6.28376
-4.32768
-3.42279
-5.93494
-3.49338
-11.2407
-0.963449
-11.5932
-8.88576
-10.2851
-5.63206
-9.40039
-1.70304
-3.03173
-8.19181
-3.4947
-2.21642
-3.09939
-3.28136
-5.12413
-8.39641
-5.54964
-13.1958
-10.54
-13.1987
-3.62011
-0.943367
-7.87282
-4.06595
-10.653
-12.3724
-1.77395
-5.14192
-6.76672
-3.73762
-0.452591
-6.3667
-4.04972
-11.0863
-13.62
-8.58979
-9.281
-6.81255
-2.82718
-14.2005
-10.5858
-13.9429
-4.91329
-6.23569
-5.09493
-4.18031
-7.04373
-11.8087
-4.18517
-2.89785
-13.698
-11.8545
-2.89486
-8.47657
-14.0679
-6.86361
-14.7112
-4.84902
-9.45973
-13.2882
-7.21876
-10.3656
-7.04266
-3.92491
-5.36282
-13.288
-4.432
-3.48124
-8.67445
-3.81334
-5.50116
-11.1202
-6.99518
-6.05353
-6.22003
-9.06194
-13.7441
-7.87638
-4.66519
-3.48376
-4.96697
-9.56345
-6.71824
-13.2221
-5.65894
-7.36912
-3.05005
-9.47431
-4.65721
-12.3668
-4.5551
-3.20106
-3.05947
-7.26355
-11.0595
-10.9267
-3.73036
-6.59229
-4.5586
-9.58499
-3.68991
-13.9458
-2.14655
-2.11217
-13.7682
-6.89819
-2.62884
-4.27345
-9.56754
-10.8966
-14.3496
-7.84716
-10.7822
-9.85581
-4.70982
-5.00945
-8.85241
-8.05525
-3.61801
-11.7493
-2.84656
-9.65642
-12.41
-5.94545
-4.19406
-10.489
-7.26768
-10.8613
-4.14041
-3.96213
-4.37774
-6.47675
-7.09286
-1.4581
-2.37517
-11.6345
-10.3295
-4.73299
-5.01378
-7.51292
-5.20732
-4.95163
-9.75451
-7.78945
-9.08834
-10.1536
-6.75539
-2.25273
-12.616
-2.54478
-13.758
-6.43953
-1.03472
-7.38524
-7.34871
-6.35547
-8.65
-12.2384
-5.4893
-4.70179
-13.4164
-0.727429
-4.0851
-4.01018
-14.8586
-14.8572
-8.89832
-12.1421
-10.1842
-2.91499
-8.24194
-3.95208
-11.8612
-5.26138
-5.97017
-4.76417
-6.47839
-9.88628
-9.29307
-14.2174
-5.7105
-6.21494
-5.72531
-3.08072
-1.81111
-6.18631
-0.714838
-5.85997
-3.74984
-4.45837
-5.23673
-8.34178
-11.3391
-9.69413
-8.7988
-12.9776
-1.69798
-13.2435
-1.95081
-4.0554
-14.1149
-8.32062
-1.23443
-2.00744
-12.8608
-9.94016
-9.16128
-11.3385
-7.59572
-13.9467
-14.5521
-2.21861
-10.6701
-5.61813
-7.51538
-14.6293
-3.87895
-5.87862
-3.65508
-3.72147
-6.18468
-6.86315
-5.51237
-4.37024
-4.05578
-13.3357
-7.15278
-4.14487
-0.84008
-11.3863
-4.96681
-9.44828
-3.97762
-13.2776
-6.76969
-1.33795
-6.5778
-2.47218
-13.4925
-3.61272
-5.0849
-5.34123
-3.23265
-5.42271
-1.43663
-1.61561
-5.65111
-2.88885
-6.01388
-2.63264
-6.26537
-3.98888
-5.88442
-6.92695
-4.92269
-1.78555
-6.35535
-6.38913
-9.99275
-11.5951
-11.0783
-9.0925
-7.7097
-5.82045
-7.02678
-7.13788
-6.90605
-0.539877
-5.42845
-13.2066
-10.1975
-2.4404
-6.71743
-9.09498
-5.53487
-12.1877
-5.43202
-3.33341
-6.67265
-8.58638
-13.5702
-8.15516
-2.32389
-6.59491
-6.1926
-0.982608
-13.0846
-9.8777
-10.8676
-2.24292
-13.7244
-5.84475
-10.7738
-5.35517
-9.8558
-4.05803
-7.83207
-12.6332
-4.19122
-4.22316
-11.3575
-1.43564
-1.19748
-8.28812
-6.21272
-13.2759
-8.16562
-4.57512
-8.05339
-3.43429
-6.22757
-11.9014
-8.74983
-2.72721
-3.63757
-7.28877
-12.9979
-14.8265
-12.9392
-8.33202
-11.1472
-3.5109
-12.4891
-4.05549
-1.96887
-5.07453
-5.69877
-11.6525
-13.2661
-0.949956
-6.51767
-10.0025
-3.85269
-4.89335
-7.61848
-9.1965
-6.95978
-4.20011
-11.3364
-5.71302
-12.7103
-2.03133
-6.57312
-7.0909
-10.0069
-7.23439
-9.4969
-6.76528
-1.52943
-8.31238
-8.4976
-12.2838
-7.64487
-3.28617
-6.1015
-2.79276
-6.00612
-3.02832
-10.5911
-2.65845
-12.8067
-7.11288
-2.41787
-4.47099
-13.3512
-8.04958
-5.06519
-7.12043
-6.81765
-11.8633
-8.83055
-8.53556
-8.70934
-6.56433
-7.31896
-9.09247
-12.4241
-2.86378
-6.91309
-4.06723
-11.1056
-11.7084
-8.7726
-5.15947
-5.00472
-14.3218
-6.71
-15.3126
-12.9254
-5.67081
-7.37522
-4.82497