<VTKFile type="UnstructuredGrid" version="0.1" byte_order="LittleEndian">
  <UnstructuredGrid>
    <Piece NumberOfPoints="9751" NumberOfCells="19154">
      <Points>
        <DataArray type = "Float32" NumberOfComponents="3" format="ascii">
-5 -7 0.0 
15.5 -7 0.0 
15.5 7 0.0 
-5 7 0.0 
-4.80097 -7 0.0 
-4.60194 -7 0.0 
-4.40291 -7 0.0 
-4.20388 -7 0.0 
-4.00485 -7 0.0 
-3.80583 -7 0.0 
-3.6068 -7 0.0 
-3.40777 -7 0.0 
-3.20874 -7 0.0 
-3.00971 -7 0.0 
-2.81068 -7 0.0 
-2.61165 -7 0.0 
-2.41262 -7 0.0 
-2.21359 -7 0.0 
-2.01456 -7 0.0 
-1.81553 -7 0.0 
-1.6165 -7 0.0 
-1.41748 -7 0.0 
-1.21845 -7 0.0 
-1.01942 -7 0.0 
-0.820388 -7 0.0 
-0.621359 -7 0.0 
-0.42233 -7 0.0 
-0.223301 -7 0.0 
-0.0242718 -7 0.0 
0.174757 -7 0.0 
0.373786 -7 0.0 
0.572816 -7 0.0 
0.771845 -7 0.0 
0.970874 -7 0.0 
1.1699 -7 0.0 
1.36893 -7 0.0 
1.56796 -7 0.0 
1.76699 -7 0.0 
1.96602 -7 0.0 
2.16505 -7 0.0 
2.36408 -7 0.0 
2.56311 -7 0.0 
2.76214 -7 0.0 
2.96117 -7 0.0 
3.16019 -7 0.0 
3.35922 -7 0.0 
3.55825 -7 0.0 
3.75728 -7 0.0 
3.95631 -7 0.0 
4.15534 -7 0.0 
4.35437 -7 0.0 
4.5534 -7 0.0 
4.75243 -7 0.0 
4.95146 -7 0.0 
5.15049 -7 0.0 
5.34951 -7 0.0 
5.54854 -7 0.0 
5.74757 -7 0.0 
5.9466 -7 0.0 
6.14563 -7 0.0 
6.34466 -7 0.0 
6.54369 -7 0.0 
6.74272 -7 0.0 
6.94175 -7 0.0 
7.14078 -7 0.0 
7.33981 -7 0.0 
7.53883 -7 0.0 
7.73786 -7 0.0 
7.93689 -7 0.0 
8.13592 -7 0.0 
8.33495 -7 0.0 
8.53398 -7 0.0 
8.73301 -7 0.0 
8.93204 -7 0.0 
9.13107 -7 0.0 
9.3301 -7 0.0 
9.52913 -7 0.0 
9.72816 -7 0.0 
9.92718 -7 0.0 
10.1262 -7 0.0 
10.3252 -7 0.0 
10.5243 -7 0.0 
10.7233 -7 0.0 
10.9223 -7 0.0 
11.1214 -7 0.0 
11.3204 -7 0.0 
11.5194 -7 0.0 
11.7184 -7 0.0 
11.9175 -7 0.0 
12.1165 -7 0.0 
12.3155 -7 0.0 
12.5146 -7 0.0 
12.7136 -7 0.0 
12.9126 -7 0.0 
13.1117 -7 0.0 
13.3107 -7 0.0 
13.5097 -7 0.0 
13.7087 -7 0.0 
13.9078 -7 0.0 
14.1068 -7 0.0 
14.3058 -7 0.0 
14.5049 -7 0.0 
14.7039 -7 0.0 
14.9029 -7 0.0 
15.1019 -7 0.0 
15.301 -7 0.0 
15.5 -6.8 0.0 
15.5 -6.6 0.0 
15.5 -6.4 0.0 
15.5 -6.2 0.0 
15.5 -6 0.0 
15.5 -5.8 0.0 
15.5 -5.6 0.0 
15.5 -5.4 0.0 
15.5 -5.2 0.0 
15.5 -5 0.0 
15.5 -4.8 0.0 
15.5 -4.6 0.0 
15.5 -4.4 0.0 
15.5 -4.2 0.0 
15.5 -4 0.0 
15.5 -3.8 0.0 
15.5 -3.6 0.0 
15.5 -3.4 0.0 
15.5 -3.2 0.0 
15.5 -3 0.0 
15.5 -2.8 0.0 
15.5 -2.6 0.0 
15.5 -2.4 0.0 
15.5 -2.2 0.0 
15.5 -2 0.0 
15.5 -1.8 0.0 
15.5 -1.6 0.0 
15.5 -1.4 0.0 
15.5 -1.2 0.0 
15.5 -1 0.0 
15.5 -0.8 0.0 
15.5 -0.6 0.0 
15.5 -0.4 0.0 
15.5 -0.2 0.0 
15.5 -3.1193e-012 0.0 
15.5 0.2 0.0 
15.5 0.4 0.0 
15.5 0.6 0.0 
15.5 0.8 0.0 
15.5 1 0.0 
15.5 1.2 0.0 
15.5 1.4 0.0 
15.5 1.6 0.0 
15.5 1.8 0.0 
15.5 2 0.0 
15.5 2.2 0.0 
15.5 2.4 0.0 
15.5 2.6 0.0 
15.5 2.8 0.0 
15.5 3 0.0 
15.5 3.2 0.0 
15.5 3.4 0.0 
15.5 3.6 0.0 
15.5 3.8 0.0 
15.5 4 0.0 
15.5 4.2 0.0 
15.5 4.4 0.0 
15.5 4.6 0.0 
15.5 4.8 0.0 
15.5 5 0.0 
15.5 5.2 0.0 
15.5 5.4 0.0 
15.5 5.6 0.0 
15.5 5.8 0.0 
15.5 6 0.0 
15.5 6.2 0.0 
15.5 6.4 0.0 
15.5 6.6 0.0 
15.5 6.8 0.0 
15.301 7 0.0 
15.1019 7 0.0 
14.9029 7 0.0 
14.7039 7 0.0 
14.5049 7 0.0 
14.3058 7 0.0 
14.1068 7 0.0 
13.9078 7 0.0 
13.7087 7 0.0 
13.5097 7 0.0 
13.3107 7 0.0 
13.1117 7 0.0 
12.9126 7 0.0 
12.7136 7 0.0 
12.5146 7 0.0 
12.3155 7 0.0 
12.1165 7 0.0 
11.9175 7 0.0 
11.7184 7 0.0 
11.5194 7 0.0 
11.3204 7 0.0 
11.1214 7 0.0 
10.9223 7 0.0 
10.7233 7 0.0 
10.5243 7 0.0 
10.3252 7 0.0 
10.1262 7 0.0 
9.92718 7 0.0 
9.72816 7 0.0 
9.52913 7 0.0 
9.3301 7 0.0 
9.13107 7 0.0 
8.93204 7 0.0 
8.73301 7 0.0 
8.53398 7 0.0 
8.33495 7 0.0 
8.13592 7 0.0 
7.93689 7 0.0 
7.73786 7 0.0 
7.53883 7 0.0 
7.33981 7 0.0 
7.14078 7 0.0 
6.94175 7 0.0 
6.74272 7 0.0 
6.54369 7 0.0 
6.34466 7 0.0 
6.14563 7 0.0 
5.9466 7 0.0 
5.74757 7 0.0 
5.54854 7 0.0 
5.34951 7 0.0 
5.15049 7 0.0 
4.95146 7 0.0 
4.75243 7 0.0 
4.5534 7 0.0 
4.35437 7 0.0 
4.15534 7 0.0 
3.95631 7 0.0 
3.75728 7 0.0 
3.55825 7 0.0 
3.35922 7 0.0 
3.16019 7 0.0 
2.96117 7 0.0 
2.76214 7 0.0 
2.56311 7 0.0 
2.36408 7 0.0 
2.16505 7 0.0 
1.96602 7 0.0 
1.76699 7 0.0 
1.56796 7 0.0 
1.36893 7 0.0 
1.1699 7 0.0 
0.970874 7 0.0 
0.771845 7 0.0 
0.572816 7 0.0 
0.373786 7 0.0 
0.174757 7 0.0 
-0.0242718 7 0.0 
-0.223301 7 0.0 
-0.42233 7 0.0 
-0.621359 7 0.0 
-0.820388 7 0.0 
-1.01942 7 0.0 
-1.21845 7 0.0 
-1.41748 7 0.0 
-1.6165 7 0.0 
-1.81553 7 0.0 
-2.01456 7 0.0 
-2.21359 7 0.0 
-2.41262 7 0.0 
-2.61165 7 0.0 
-2.81068 7 0.0 
-3.00971 7 0.0 
-3.20874 7 0.0 
-3.40777 7 0.0 
-3.6068 7 0.0 
-3.80583 7 0.0 
-4.00485 7 0.0 
-4.20388 7 0.0 
-4.40291 7 0.0 
-4.60194 7 0.0 
-4.80097 7 0.0 
-5 6.8 0.0 
-5 6.6 0.0 
-5 6.4 0.0 
-5 6.2 0.0 
-5 6 0.0 
-5 5.8 0.0 
-5 5.6 0.0 
-5 5.4 0.0 
-5 5.2 0.0 
-5 5 0.0 
-5 4.8 0.0 
-5 4.6 0.0 
-5 4.4 0.0 
-5 4.2 0.0 
-5 4 0.0 
-5 3.8 0.0 
-5 3.6 0.0 
-5 3.4 0.0 
-5 3.2 0.0 
-5 3 0.0 
-5 2.8 0.0 
-5 2.6 0.0 
-5 2.4 0.0 
-5 2.2 0.0 
-5 2 0.0 
-5 1.8 0.0 
-5 1.6 0.0 
-5 1.4 0.0 
-5 1.2 0.0 
-5 1 0.0 
-5 0.8 0.0 
-5 0.6 0.0 
-5 0.4 0.0 
-5 0.2 0.0 
-5 3.1193e-012 0.0 
-5 -0.2 0.0 
-5 -0.4 0.0 
-5 -0.6 0.0 
-5 -0.8 0.0 
-5 -1 0.0 
-5 -1.2 0.0 
-5 -1.4 0.0 
-5 -1.6 0.0 
-5 -1.8 0.0 
-5 -2 0.0 
-5 -2.2 0.0 
-5 -2.4 0.0 
-5 -2.6 0.0 
-5 -2.8 0.0 
-5 -3 0.0 
-5 -3.2 0.0 
-5 -3.4 0.0 
-5 -3.6 0.0 
-5 -3.8 0.0 
-5 -4 0.0 
-5 -4.2 0.0 
-5 -4.4 0.0 
-5 -4.6 0.0 
-5 -4.8 0.0 
-5 -5 0.0 
-5 -5.2 0.0 
-5 -5.4 0.0 
-5 -5.6 0.0 
-5 -5.8 0.0 
-5 -6 0.0 
-5 -6.2 0.0 
-5 -6.4 0.0 
-5 -6.6 0.0 
-5 -6.8 0.0 
8.41365 -0.0150895 0.0 
1.70542 0.290156 0.0 
5.04263 -2.63896 0.0 
5.21284 2.77039 0.0 
11.3717 2.87144 0.0 
11.3889 -2.84809 0.0 
-0.89222 -2.89182 0.0 
-1.04288 3.0536 0.0 
8.11234 -3.68352 0.0 
2.13436 3.75993 0.0 
8.25559 3.75844 0.0 
2.08242 -3.86981 0.0 
-1.88619 0.0596801 0.0 
12.4686 -0.00913525 0.0 
5.6738 0.0288943 0.0 
13.1037 4.5806 0.0 
13.0907 -4.58887 0.0 
-2.59844 -4.62034 0.0 
6.09142 -4.70624 0.0 
-2.69506 4.69463 0.0 
2.82941 -1.71771 0.0 
4.13444 4.74325 0.0 
10.1156 -4.81231 0.0 
7.07596 -1.75288 0.0 
10.2506 4.79281 0.0 
7.21083 1.82703 0.0 
6.33519 4.82454 0.0 
10.4364 0.879718 0.0 
3.77541 1.09164 0.0 
0.103412 -4.81604 0.0 
0.211995 4.82112 0.0 
-2.82132 -1.89586 0.0 
9.4268 -1.92724 0.0 
13.3451 1.96473 0.0 
13.3735 -1.92316 0.0 
-0.00703577 -0.937695 0.0 
-2.87931 1.95315 0.0 
3.94481 -4.88089 0.0 
-0.144577 1.19456 0.0 
9.00385 2.08844 0.0 
1.46144 2.05245 0.0 
0.876611 -2.52457 0.0 
11.0356 -1.13244 0.0 
7.64166 -5.29124 0.0 
3.51917 2.75492 0.0 
4.11685 -0.564126 0.0 
2.55787 5.32805 0.0 
8.72227 5.34462 0.0 
11.6377 -5.3597 0.0 
1.62783 -5.40773 0.0 
11.6957 5.38674 0.0 
-1.27418 5.40456 0.0 
-3.4027 -0.414984 0.0 
13.9272 -0.501627 0.0 
3.55205 -3.36339 0.0 
6.42945 -3.16813 0.0 
0.476372 3.2917 0.0 
6.63655 3.25774 0.0 
-1.26569 -5.41962 0.0 
-3.46923 -3.33334 0.0 
-3.45794 3.36469 0.0 
11.8768 1.42088 0.0 
13.9206 3.34697 0.0 
13.9523 -3.35867 0.0 
9.94137 3.26753 0.0 
-1.45465 -1.48115 0.0 
1.47837 -1.19073 0.0 
9.58341 -3.37763 0.0 
7.07032 0.413059 0.0 
5.80532 1.43508 0.0 
9.80217 -0.374825 0.0 
5.66655 -1.4073 0.0 
-1.47981 1.68963 0.0 
14.0371 5.59199 0.0 
14.0633 -5.60259 0.0 
-3.54432 -5.58681 0.0 
9.01047 -5.60381 0.0 
5.23867 5.63037 0.0 
5.0616 -5.63376 0.0 
14.1283 0.858352 0.0 
1.27586 5.65374 0.0 
-3.61862 5.58144 0.0 
7.37234 5.64926 0.0 
4.91339 -3.97257 0.0 
12.648 3.30021 0.0 
12.643 -3.32301 0.0 
-3.67439 0.884921 0.0 
-2.1169 -3.37614 0.0 
2.94406 -5.72558 0.0 
8.27735 -1.30334 0.0 
5.25193 4.05631 0.0 
-0.972153 -4.16312 0.0 
2.84965 -0.381423 0.0 
2.47981 1.31786 0.0 
11.354 4.16024 0.0 
11.2537 -4.13573 0.0 
12.0778 -1.82545 0.0 
0.835117 -3.76141 0.0 
-2.20798 3.56282 0.0 
10.3565 2.19026 0.0 
12.7906 -5.7765 0.0 
4.08429 -1.84457 0.0 
0.478341 0.187737 0.0 
2.09015 -2.655 0.0 
12.8648 5.78371 0.0 
-0.842943 4.2873 0.0 
6.52635 -5.77589 0.0 
8.21367 1.18472 0.0 
7.97065 -2.47718 0.0 
-0.70075 0.0375302 0.0 
-2.42617 -5.81451 0.0 
11.2711 0.037211 0.0 
3.28326 3.92593 0.0 
3.67164 5.83884 0.0 
-3.80777 -4.42659 0.0 
-2.39537 5.8217 0.0 
10.5522 -5.80566 0.0 
9.74593 5.83714 0.0 
7.13723 -4.26674 0.0 
-3.83284 4.48572 0.0 
9.00563 -4.42235 0.0 
14.3194 4.45063 0.0 
14.3201 -4.44108 0.0 
6.6137 -0.627155 0.0 
9.25924 0.781814 0.0 
8.01553 2.64102 0.0 
-0.21233 2.32162 0.0 
4.87988 0.822714 0.0 
0.59295 -5.8735 0.0 
-0.205096 5.86017 0.0 
7.43745 4.51253 0.0 
-3.87336 -1.44249 0.0 
10.5036 -2.13119 0.0 
1.28147 4.52237 0.0 
14.3773 -1.53238 0.0 
-0.155086 -2.05718 0.0 
9.18643 4.38202 0.0 
2.41168 2.69977 0.0 
4.345 2.05469 0.0 
14.3917 2.31766 0.0 
4.26261 3.54893 0.0 
6.26666 5.91856 0.0 
-3.90004 2.3817 0.0 
13.0331 0.912242 0.0 
2.92636 -4.61154 0.0 
-2.41426 -0.900079 0.0 
-2.55861 0.924885 0.0 
12.7773 -1.03887 0.0 
1.02345 1.08869 0.0 
4.05933 -5.93056 0.0 
10.7888 5.98195 0.0 
12.3583 2.37508 0.0 
-0.433601 -5.98372 0.0 
-0.194603 -3.61418 0.0 
-2.02342 2.52947 0.0 
-1.92482 -2.36052 0.0 
6.30193 2.30951 0.0 
-3.9608 -2.48383 0.0 
7.57617 -0.552954 0.0 
14.5164 -2.52189 0.0 
10.5649 -3.45905 0.0 
8.95631 3.06939 0.0 
6.18503 -2.21818 0.0 
1.43765 3.03174 0.0 
12.2059 -4.19047 0.0 
8.90271 -2.71243 0.0 
3.00195 0.500528 0.0 
5.04173 -0.66713 0.0 
-1.758 4.60697 0.0 
-1.23485 0.78611 0.0 
8.1911 -6.06865 0.0 
10.1225 -1.30205 0.0 
11.8864 -0.748107 0.0 
3.21757 1.86677 0.0 
7.34848 -3.14924 0.0 
3.44068 -2.46025 0.0 
0.639695 -1.61175 0.0 
9.18019 -1.0304 0.0 
1.02221 -4.6822 0.0 
12.1787 4.61714 0.0 
2.07353 6.09367 0.0 
8.13151 6.12041 0.0 
5.80928 -3.81858 0.0 
14.5991 0.0970642 0.0 
0.553511 1.85722 0.0 
-1.30761 -0.615287 0.0 
9.75174 1.54593 0.0 
8.12005 -4.57325 0.0 
-4.10751 0.110892 0.0 
2.12716 -6.12848 0.0 
9.7338 -6.11698 0.0 
4.49813 6.10545 0.0 
10.5289 3.92295 0.0 
4.15707 0.309293 0.0 
-1.71882 -4.63645 0.0 
6.66538 1.12562 0.0 
-0.018476 4.01749 0.0 
3.2527 4.80601 0.0 
11.0141 1.54829 0.0 
2.71665 -3.29133 0.0 
-2.78778 -2.75425 0.0 
6.09899 4.0067 0.0 
7.51111 3.34852 0.0 
11.9975 -6.09922 0.0 
0.797819 -0.653925 0.0 
7.32054 -6.12934 0.0 
13.2928 0.0843629 0.0 
5.20693 -4.78417 0.0 
0.569525 6.14444 0.0 
2.14326 4.63298 0.0 
12.6538 -2.47507 0.0 
5.74088 -6.14627 0.0 
3.42481 -1.07544 0.0 
[...]
<PointData>
  <DataArray type = "Float32" Name="LevelSetLayer1" format="ascii">
-8.59504
-16.1012
-16.1012
-8.58432
-8.48061
-8.36934
-8.26121
-8.15646
-8.05527
-7.95777
-7.86411
-7.7744
-7.68874
-7.60716
-7.52995
-7.45726
-7.38901
-7.32548
-7.2668
-7.21292
-7.16413
-7.12035
-7.08178
-7.04844
-7.02032
-6.9975
-6.97991
-6.96759
-6.96041
-6.95823
-6.96078
-6.96771
-6.97748
-6.98838
-6.9994
-7.00886
-7.02286
-7.04189
-7.06634
-7.09629
-7.13167
-7.1724
-7.21839
-7.26954
-7.32574
-7.38688
-7.45283
-7.52347
-7.59867
-7.67829
-7.7622
-7.85026
-7.94234
-8.03828
-8.13797
-8.24125
-8.34801
-8.4581
-8.5714
-8.68778
-8.80712
-8.92931
-9.05422
-9.18174
-9.31177
-9.44421
-9.57895
-9.71591
-9.85497
-9.99607
-10.1391
-10.284
-10.4307
-10.5791
-10.7291
-10.8807
-11.0339
-11.1884
-11.3444
-11.5016
-11.6602
-11.82
-11.9809
-12.143
-12.3062
-12.4704
-12.6356
-12.8018
-12.9689
-13.1368
-13.3057
-13.4754
-13.6458
-13.817
-13.989
-14.1617
-14.335
-14.509
-14.6837
-14.8589
-15.0348
-15.2112
-15.3882
-15.5657
-15.7437
-15.9222
-16.0153
-15.9314
-15.8496
-15.7699
-15.6924
-15.617
-15.5438
-15.4729
-15.4042
-15.3379
-15.2738
-15.2122
-15.1529
-15.096
-15.0416
-14.9897
-14.9402
-14.8933
-14.8489
-14.8071
-14.7679
-14.7313
-14.6973
-14.6659
-14.6373
-14.6113
-14.588
-14.5674
-14.5496
-14.5344
-14.5221
-14.5124
-14.5055
-14.5014
-14.5
-14.5014
-14.5055
-14.5124
-14.5221
-14.5344
-14.5496
-14.5674
-14.588
-14.6113
-14.6373
-14.6659
-14.6973
-14.7313
-14.7679
-14.8071
-14.8489
-14.8933
-14.9402
-14.9897
-15.0416
-15.096
-15.1529
-15.2122
-15.2738
-15.3379
-15.4042
-15.4729
-15.5438
-15.617
-15.6924
-15.7699
-15.8496
-15.9314
-16.0153
-15.9222
-15.7437
-15.5657
-15.3882
-15.2112
-15.0348
-14.8589
-14.6837
-14.509
-14.335
-14.1617
-13.989
-13.817
-13.6458
-13.4754
-13.3057
-13.1368
-12.9689
-12.8018
-12.6356
-12.4704
-12.3062
-12.143
-11.9809
-11.82
-11.6602
-11.5016
-11.3444
-11.1884
-11.0339
-10.8807
-10.7291
-10.5791
-10.4307
-10.284
-10.1391
-9.99607
-9.85497
-9.71591
-9.57895
-9.44421
-9.31177
-9.18174
-9.05422
-8.92931
-8.80712
-8.68778
-8.5714
-8.4581
-8.34801
-8.24125
-8.13797
-8.03828
-7.94234
-7.85026
-7.7622
-7.67829
-7.59867
-7.52347
-7.45283
-7.38655
-7.32462
-7.26709
-7.21367
-7.16413
-7.11843
-7.07649
-7.03844
-7.00438
-6.97442
-6.94862
-6.92709
-6.90994
-6.89734
-6.88945
-6.88639
-6.88823
-6.89505
-6.90685
-6.9237
-6.94556
-6.97242
-7.00426
-7.04108
-7.0828
-7.12943
-7.18084
-7.23703
-7.29787
-7.36333
-7.4333
-7.50769
-7.58643
-7.66939
-7.75636
-7.84736
-7.94213
-8.04066
-8.1427
-8.24828
-8.35708
-8.46914
-8.42302
-8.26342
-8.10561
-7.94969
-7.79568
-7.64374
-7.49407
-7.34679
-7.20205
-7.0599
-6.92053
-6.78418
-6.65106
-6.52135
-6.39527
-6.27294
-6.15452
-6.04039
-5.93082
-5.82606
-5.72636
-5.63201
-5.54306
-5.45988
-5.38284
-5.31222
-5.24828
-5.19126
-5.14139
-5.09865
-5.0633
-5.03566
-5.01585
-5.00395
-5.00004
-5.00412
-5.01618
-5.03616
-5.06397
-5.09942
-5.14209
-5.19211
-5.24929
-5.31338
-5.38414
-5.46131
-5.54463
-5.63382
-5.7286
-5.82871
-5.93387
-6.04382
-6.15831
-6.27708
-6.3999
-6.52653
-6.65677
-6.7902
-6.92682
-7.06645
-7.20894
-7.3541
-7.50178
-7.65185
-7.80415
-7.95857
-8.11497
-8.27326
-8.43331
-7.41366
-0.762763
-4.82773
-5.04213
-10.7618
-10.7722
-3.01003
-3.18674
-8.0096
-3.92605
-8.17126
-4.01834
-1.88711
-11.4686
-4.67389
-12.9414
-12.9322
-5.29133
-6.93334
-5.38944
-2.50943
-5.68534
-10.3079
-6.32376
-10.4185
-6.47398
-7.19308
-9.47733
-2.98237
-4.77457
-4.70907
-3.39652
-8.64437
-12.5005
-12.522
-0.904151
-3.47322
-5.70043
-1.14029
-8.27183
-2.09811
-2.51498
-10.0992
-8.49169
-3.73307
-3.16749
-5.54939
-9.39141
-11.9116
-5.44405
-11.9756
-5.49913
-3.42821
-12.937
-4.22201
-6.28617
-3.17991
-6.51026
-5.54558
-4.80683
-4.81405
-10.9693
-13.347
-13.3807
-9.51971
-2.0713
-1.28323
-9.22406
-6.08436
-5.01503
-8.81014
-4.87414
-2.23264
-14.1858
-14.214
-6.60799
-9.776
-7.04751
-6.94521
-13.1563
-5.60115
-6.63138
-8.51592
-5.57638
-12.1065
-12.108
-3.77885
-3.97657
-6.04662
-7.39313
-5.87644
-4.25531
-1.88856
-1.98156
-11.1585
-11.0563
-11.2272
-3.74743
-4.17006
-9.60941
-13.1296
-3.59379
-0.0800157
-2.8701
-13.1994
-4.31043
-7.99383
-7.31031
-7.39773
-0.701684
-6.2876
-10.2712
-4.54161
-6.42103
-5.83316
-6.26072
-11.1781
-10.5149
-7.47467
-5.88613
-9.14589
-14.0433
-14.0409
-5.64863
-8.29616
-7.49618
-2.2568
-3.96615
-5.84342
-5.76897
-7.86153
-4.1324
-9.73959
-4.48139
-13.4648
-2.03315
-9.28546
-3.04657
-3.92566
-13.5908
-4.82074
-7.92257
-4.56472
-12.0676
-4.99772
-2.57575
-2.71873
-11.823
-1.05701
-6.67316
-11.4719
-11.604
-5.96793
-3.58666
-3.224
-3.03957
-5.78311
-4.6728
-6.59938
-13.7497
-10.1711
-8.52784
-5.63958
-3.04364
-11.9638
-8.35525
-2.06358
-4.09642
-4.8941
-1.4585
-9.40959
-9.215
-10.9121
-2.8987
-7.08667
-3.46551
-1.58999
-8.24483
-4.67721
-12.0947
-6.17075
-9.39776
-6.1409
-13.5994
-1.75049
-1.44367
-8.88723
-8.46225
-4.10899
-6.23127
-10.6629
-7.03658
-10.3048
-3.17219
-4.93069
-5.77612
-3.91735
-5.30777
-10.1331
-3.71211
-3.91438
-6.48485
-7.32169
-12.5756
-0.642761
-8.80443
-12.2931
-6.37076
-6.03416
-4.76714
-11.9138
-7.76225
-2.6526
-5.11354
-8.61864
-12.6419
-12.692
-3.2955
-13.7417
-4.69931
-4.00307
-2.09711
-4.32205
-2.72446
-6.46656
-11.0981
-4.81814
-6.29308
-1.08166
-4.44049
-10.1021
-6.24308
-10.8832
-15.0093
-14.9955
-12.4754
-6.39531
-7.72802
-7.45933
-13.9627
-9.25811
-11.184
-4.5664
-2.81208
-5.61917
-4.25249
-4.72933
-6.19743
-12.8665
-12.8749
-5.60117
-12.7178
-4.94799
-13.7305
-14.1742
-14.1751
-6.66371
-11.4085
-14.007
-5.80071
-4.96897
-9.42999
-9.04027
-6.89424
-5.55268
-10.5547
-4.86418
-6.93826
-7.48211
-12.5669
-3.9562
-9.86771
-3.70267
-11.7199
-6.36505
-6.6226
-10.0244
-6.82254
-2.44515
-3.17909
-11.4028
-11.9797
-2.36513
-14.6101
-14.6515
-7.90417
-3.7185
-3.73819
-3.31278
-10.7399
-6.61179
-2.52663
-2.50068
-5.31238
-1.50331
-13.4305
-9.89692
-7.10548
-1.55846
-4.07331
-3.90432
-2.72181
-7.21104
-8.72763
-7.17568
-6.46523
-8.18464
-7.72692
-2.59279
-13.4848
-4.42816
-14.0609
-8.62231
-1.78787
-6.25252
-6.72039
-10.2518
-5.99185
-4.93346
-5.56963
-5.22542
-3.71851
-6.10768
-6.40384
-10.152
-8.99033
-7.28809
-4.65518
-1.95466
-2.30318
-9.50194
-4.40883
-1.73182
-13.0215
-6.85553
-4.56686
-6.99834
-8.76883
-6.74675
-12.3011
-5.34139
-7.97771
-5.31397
-0.443255
-10.0656
-5.49163
-10.6462
-9.69678
-12.1705
-7.84182
-3.80569
-12.5263
-6.26331
-5.58239
-5.23962
-3.6346
-1.43533
-2.97346
-0.250218
-4.20177
-6.02019
-11.6356
-4.29041
-5.03498
-4.20105
-7.61314
-11.2889
-5.50882
-13.8332
-11.2271
-10.7854
-8.776
-5.64167
-6.28125
-3.38885
-0.882153
-6.39711
-6.23535
-0.135076
-7.65241
-8.7422
-4.05576
-5.44081
-4.45908
-5.28446
-10.0851
-2.11249
-13.1638
-4.42411
-12.9285
-11.8528
-13.5875
-6.30913
-7.96313
-3.54409
-11.4157
-5.24692
-14.2086
-5.05431
-13.411
-4.73412
-4.75437
-5.32149
-0.755093
-5.04694
-10.5317
-11.4199
-4.14092
-4.30941
-12.2873
-5.22894
-6.58936
-9.15076
-1.3938
-3.09203
-6.11617
-10.7911
-10.7266
-2.42951
-5.71982
-3.26468
-5.69375
-13.9939
-13.4994
-2.04248
-13.9012
-6.08695
-13.2294
-3.11542
-5.21702
-10.2427
-3.66397
-7.73352
-7.52306
-8.58962
-9.47172
-1.05749
-13.3095
-11.2694
-3.00563
-5.88231
-7.02315
-13.0025
-10.3224
-10.8362
-14.5655
-4.88815
-5.24558
-9.60368
-8.05574
-8.03873
-9.32725
-5.87108
-2.55654
-6.51026
-3.52663
-1.31222
-4.41908
-6.76497
-3.71203
-6.7151
-5.88255
-3.44516
-8.04991
-7.54301
-6.1191
-3.33182
-2.67644
-4.07233
-8.30426
-6.29262
-7.34699
-5.46833
-10.6849
-14.6043
-11.3062
-2.64505
-6.16172
-5.01858
-10.8035
-11.492
-14.5573
-14.5526
-1.68436
-8.9015
-0.549008
-9.21377
-9.75466
-5.3056
-8.06493
-2.97144
-12.5591
-12.4672
-11.6639
-0.717568
-6.3963
-14.0506
-2.11908
-4.58618
-4.87401
-2.64893
-7.18946
-13.7119
-13.9655
-5.89709
-12.4658
-4.35006
-13.2773
-6.81715
-3.37571
-1.48781
-7.38754
-2.55557
-12.4213
-6.31784
-4.28736
-9.70797
-3.81095
-7.72738
-9.96643
-7.69256
-7.17258
-4.07207
-3.23097
-2.75072
-4.44348
-9.17419
-7.15344
-6.78605
-8.55852
-7.3647
-5.54033
-5.04326
-11.4562
-3.19259
-11.5337
-5.23981
-5.55692
-2.32875
-5.4968
-12.0669
-15.0396
-15.042
-7.49805
-3.66325
-6.88654
-11.6777
-2.88179
-3.77956
-13.1613
-9.59181
-10.6981
-9.8419
-8.38718
-4.45606
-6.97217
-6.96039
-11.8442
-3.22092
-13.4453
-4.28499
-1.55703
-9.39738
-6.22494
-11.579
-4.5855
-8.75218
-6.87325
-2.4903
-4.4671
-5.20997
-9.05699
-7.56146
-2.33268
-3.81575
-6.02404
-2.48912
-8.32074
-7.38226
-6.68793
-3.58304
-8.69081
-3.37549
-14.1147
-7.06595
-8.28955
-5.01761
-7.93561
-1.01728
-4.87301
-12.6138
-2.78216
-14.0195
-6.6245
-10.047
-3.12633
-5.79678
-3.42121
-12.9444
-4.22959
-2.09224
-11.817
-2.97426
-8.70021
-9.95017
-5.93729
-3.99105
-6.21383
-3.61466
-1.2419
-4.25192
-1.4943
-12.0895
-3.49735
-5.73285
-1.16536
-11.1912
-8.68804
-3.44527
-4.56378
-8.22887
-10.58
-1.85882
-4.49514
-8.81355
-6.56566
-8.56495
-8.7819
-3.56824
-8.89486
-4.2051
-9.87166
-11.4266
-12.4356
-6.48306
-5.178
-8.9567
-12.5981
-13.739
-4.65761
-11.7211
-1.69836
-12.984
-11.8866
-13.2046
-6.45282
-4.4411
-7.10578
-7.94135
-5.3151
-5.86011
-5.36523
-7.43607
-5.1436
-6.24337
-9.83063
-10.269
-6.0331
-4.64613
-9.50798
-12.0998
-10.746
-2.63668
-10.5507
-6.98997
-12.48
-9.60671
-4.30454
-3.23687
-6.90042
-1.10088
-14.2281
-3.66788
-13.8029
-4.00372
-7.87133
-12.9487
-6.63868
-9.86122
-14.2116
-13.4036
-11.8953
-6.45266
-4.29867
-5.11884
-1.77022
-6.56784
-5.99438
-7.04576
-7.1571
-6.43921
-11.4021
-9.44372
-10.4606
-4.83591
-5.19874
-6.60671
-5.67681
-4.47287
-5.13666
-12.2143
-2.55971
-2.7832
-5.94472
-0.287151
-10.319
-5.18566
-2.04942
-5.92786
-4.67145
-1.88756
-13.6249
-2.15957
-7.0369
-15.4499
-15.457
-5.22253
-3.87374
-4.63876
-12.4821
-2.09141
-7.92704
-7.46522
-12.1995
-2.91655
-6.51152
-6.58666
-5.69485
-14.0726
-4.09953
-10.1301
-5.71459
-11.1497
-12.2272
-6.61739
-8.93165
-14.7887
-14.7762
-5.38914
-5.31008
-6.05166
-5.75866
-2.09012
-13.7545
-13.534
-4.59025
-4.52671
-5.70541
-2.58233
-3.62958
-13.4358
-14.4256
-6.55021
-1.64038
-13.4006
-5.45819
-14.0207
-6.41557
-10.1985
-6.31792
-11.8962
-12.3266
-4.84381
-9.01336
-4.25535
-6.79054
-7.57033
-6.02234
-8.47847
-7.69373
-5.6476
-4.41892
-12.6318
-8.97859
-3.21063
-7.82943
-0.664139
-10.2398
-10.8612
-5.13224
-12.5571
-9.60035
-1.57587
-8.13189
-5.15228
-5.42879
-12.8349
-4.18452
-6.90249
-4.54493
-2.97229
-2.86604
-5.08846
-3.75674
-2.96703
-13.8441
-9.5981
-5.74554
-5.40006
-7.93914
-0.975433
-4.37631
-3.66481
-7.75314
-12.7872
-3.95519
-6.63405
-6.87884
-6.15562
-5.9725
-6.80581
-3.94246
-6.58718
-4.53935
-7.34337
-5.95539
-6.77929
-8.58099
-9.99261
-5.46146
-9.65354
-6.90115
-7.31682
-5.14116
-1.92062
-8.21051
-9.24825
-8.41336
-6.44974
-9.24957
-9.15065
-2.72825
-3.81183
-5.261
-5.30739
-4.70498
-9.90249
-6.67578
-11.032
-10.4403
-6.20896
-11.5249
-3.97349
-1.0699
-4.04114
-13.4425
-2.36798
-4.98431
-4.19799
-4.07112
-11.694
-6.27596
-2.14085
-10.6637
-3.41244
-7.35257
-5.66975
-3.86511
-13.5561
-3.39768
-6.87403
-12.9607
-8.26733
-2.26596
-12.0619
-6.58056
-5.44284
-8.98122
-3.46455
-2.08781
-2.49569
-12.1066
-5.83125
-0.457653
-7.60355
-4.29728
-5.18769
-14.6753
-14.6789
-4.28126
-8.93014
-11.1246
-1.92847
-13.053
-5.79679
-6.44339
-14.4984
-4.93675
-13.052
-4.8597
-4.85946
-4.40866
-7.0177
-13.9358
-6.14693
-10.888
-12.6825
-6.44714
-5.9388
-7.80361
-4.68268
-8.39074
-4.33935
-9.40606
-10.4114
-12.9279
-10.577
-7.27643
-10.4474
-3.51666
-12.0682
-5.55271
-9.03524
-14.232
-6.45952
-11.182
-5.83056
-2.80817
-9.22509
-12.752
-12.4315
-14.2711
-5.48547
-13.5881
-1.2443
-2.96239
-6.95395
-8.03036
-4.63217
-8.28196
-4.89061
-13.24
-15.0001
-3.10509
-9.80569
-14.2967
-5.83776
-9.64194
-10.8247
-6.75126
-4.49872
-10.9778
-12.9015
-6.26618
-10.8094
-2.45104
-9.16379
-5.19933
-8.43163
-1.52407
-11.8518
-3.12177
-1.92044
-5.70963
-9.03534
-6.81321
-14.1661
-2.6948
-4.12829
-4.44046
-1.9514
-2.53959
-4.87638
-3.52227
-5.93454
-15.0102
-10.4512
-1.77006
-13.8328
-10.6173
-9.04531
-8.13228
-5.98431
-6.88462
-6.65741
-2.28299
-13.0325
-4.15742
-10.4769
-12.9015
-10.7977
-6.00838
-12.448
-7.20333
-7.68245
-6.21552
-4.59665
-9.94345
-7.52819
-1.08273
-1.07043
-14.2969
-3.72244
-12.5812
-10.0881
-11.1855
-3.81497
-14.5979
-7.70329
-7.35112
-2.79049
-6.84192
-7.57067
-14.3248
-15.3263
-15.3267
-5.46523
-14.6064
-8.3497
-7.31546
-7.02938
-8.38408
-6.55085
-3.24303
-3.50559
-14.1222
-4.66029
-7.72249
-7.29816
-11.0777
-3.22066
-4.86541
-5.25506
-4.75036
-7.68834
-8.32783
-6.65946
-6.51735
-4.02925
-11.1908
-12.0324
-12.2097
-12.654
-11.0425
-11.7101
-2.39468
-4.99574
-4.55305
-3.72411
-3.57275
-3.92506
-9.16749
-0.0346492
-3.04256
-0.678875
-4.03636
-11.5456
-1.47451
-10.31
-6.03951
-8.18862
-2.14466
-7.89101
-6.37267
-3.41676
-5.38511
-11.0654
-4.75659
-8.55601
-5.96398
-3.76547
-5.63926
-13.8708
-10.1649
-1.44811
-11.3704
-7.36751
-3.36712
-5.59317
-3.9562
-7.58052
-6.99279
-5.62356
-8.73395
-13.7832
-1.31681
-9.36723
-11.5919
-6.25611
-6.66792
-13.585
-8.43106
-5.77098
-2.54163
-7.68431
-9.95694
-7.04362
-15.0668
-15.0459
-5.14012
-4.68468
-6.00016
-7.91857
-6.22664
-4.0274
-10.0813
-5.98702
-1.30618
-4.33252
-6.25389
-9.51864
-9.49664
-2.56492
-11.5559
-13.5365
-4.73092
-14.0649
-2.50245
-13.0415
-4.182
-13.2816
-4.31503
-12.0693
-2.58409
-1.604
-6.08326
-1.87324
-5.87287
-3.78347
-7.27962
-6.42458
-11.787
-4.73809
-6.44051
-11.585
-5.63029
-13.665
-14.2988
-3.04366
-4.816
-9.89454
-10.3477
-14.4286
-3.69866
-5.54435
-10.5954
-3.27561
-6.59573
-3.10279
-12.9821
-6.11851
-13.4886
-5.18656
-2.27006
-2.42477
-12.2513
-12.1026
-2.9422
-1.5952
-10.2239
-7.57795
-4.88381
-12.7513
-7.55204
-2.86804
-13.8467
-7.19471
-11.9199
-6.23091
-5.90947
-5.88987
-0.629274
-2.62467
-0.532082
-12.5809
-3.4689
-4.80569
-3.74513
-1.40642
-4.96321
-6.88679
-2.82512
-0.595379
-7.35199
-5.26566
-4.93532
-7.69036
-0.372315
-6.67842
-5.71884
-3.92776
-12.1883
-14.238
-6.32466
-8.77393
-3.89073
-4.70874
-9.07523
-6.78068
-5.133
-4.33876
-7.71983
-4.53048
-8.30154
-5.11487
-6.02024
-10.9852
-4.46535
-7.53349
-0.80045
-3.33278
-13.2341
-14.4557
-3.90186
-5.57205
-6.77522
-5.00332
-5.44492
-9.00163
-2.59461
-6.58227
-4.70193
-7.08695
-4.87502
-2.78895
-7.11336
-8.23114
-0.285309
-3.49823
-6.61264
-10.4366
-9.93471
-5.10261
-5.17196
-13.236
-4.42232
-12.0295
-5.08147
-13.0636
-9.09021
-12.7602
-5.93378
-0.259312
-6.6408
-5.28623
-9.47819
-5.72772
-7.99126
-2.19622
-6.66388
-5.64302
-1.1457
-6.3609
-9.94057
-7.92914
-5.93337
-1.68292
-4.82281
-11.626
-7.09999
-14.4231
-3.35683
-3.04595
-8.04935
-6.54977
-11.7113
-3.55819
-4.9184
-4.66022
-10.8199
-7.04209
-3.90126
-6.9831
-6.16386
-13.7848
-13.8212
-10.375
-4.00769
-6.65055
-11.6887
-6.62647
-8.03371
-11.074
-2.24038
-7.60923
-1.3906
-1.67287
-4.31102
-2.28874
-3.74518
-5.7091
-2.35965
-9.08776
-2.2562
-9.41863
-5.25985
-5.46254
-12.1877
-8.25507
-5.47425
-6.27361
-6.96988
-14.0017
-2.94699
-2.32981
-2.15531
-11.1607
-5.71694
-9.80697
-0.13262
-13.374
-2.96914
-10.3794
-11.4174
-5.35727
-6.07672
-7.66962
-9.69846
-14.5708
-8.66153
-6.20085
-14.6511
-9.5687
-13.3412
-5.27358
-10.5683
-12.853
-7.96386
-6.18317
-2.88415
-14.4176
-8.54399
-10.3566
-3.30383
-7.14029
-11.4862
-4.50097
-8.05727
-4.89874
-7.38761
-3.66154
-11.2855
-8.14373
-1.74813
-12.5928
-10.482
-5.31814
-4.34455
-0.837965
-6.51618
-2.75759
-5.67297
-7.70629
-14.4407
-11.4803
-3.20916
-2.37956
-3.3392
-11.6754
-3.69725
-7.86896
-2.44711
-6.58903
-11.3265
-5.82442
-13.8294
-12.4352
-12.9142
-9.42106
-7.16871
-5.53368
-4.72678
-3.27666
-11.1594
-2.22369
-6.66775
-6.7241
-3.90024
-11.4346
-6.10427
-5.90331
-11.0655
-10.9629
-0.410897
-11.07
-4.18615
-3.3416
-6.36791
-4.32295
-10.4527
-5.11355
-7.23388
-4.37625
-1.38168
-3.11276
-6.56074
-5.46525
-8.54329
-6.25163
-5.95798
-1.21325
-10.4015
-6.8422
-9.40979
-9.10981
-5.71679
-6.51916
-13.2374
-8.63806
-7.14938
-3.78655
-3.97393
-12.8126
-9.89096
-12.9262
-10.9413
-12.5635
-3.81842
-3.46749
-5.48444
-3.72092
-2.84725
-12.3608
-5.18928
-9.72818
-3.02422
-3.2734
-9.26966
-10.844
-4.38742
-10.9373
-6.22104
-5.2298
-11.4196
-12.3381
-14.3362
-5.78972
-7.3963
-7.20716
-5.01136
-10.588
-1.73965
-13.9413
-14.1674
-4.51905
-11.3017
-11.7694
-4.0404
-13.0997
-3.20892
-1.69081
-5.8926
-6.60173
-4.73499
-3.50141
-9.30772
-7.27838
-6.40985
-5.2378
-8.35727
-12.6284
-11.9047
-4.48294
-10.2922
-3.85181
-14.1716
-2.99319
-8.07084
-7.5311
-7.23432
-5.1339
-7.89516
-6.07225
-13.5228
-3.53429
-5.22507
-8.97212
-13.8409
-3.22882
-8.74274
-6.12618
-8.63591
-6.8637
-4.82597
-12.2816
-3.50799
-5.64993
-9.74856
-0.879581
-6.63465
-12.2195
-11.7824
-5.94785
-11.6909
-9.79722
-7.72373
-4.69685
-4.84938
-4.23262
-11.8625
-6.00747
-14.0686
-4.03455
-6.28274
-4.32814
-3.41654
-5.9411
-3.4924
-11.2413
-0.9696
-11.5925
-8.88552
-10.2859
-5.63313
-9.39982
-1.70301
-3.03261
-8.19226
-3.48218
-2.2223
-3.07112
-3.28126
-5.12302
-8.39728
-5.54836
-13.1961
-10.54
-13.1992
-3.6208
-0.94034
-7.87221
-4.06485
-10.6529
-12.3719
-1.7702
-5.12008
-6.77189
-3.7351
-0.452062
-6.3656
-4.04747
-11.0864
-13.6206
-8.59012
-9.28139
-6.81328
-2.79721
-14.2004
-10.5864
-13.9431
-4.91033
-6.22204
-5.09223
-4.18101
-7.04268
-11.8081
-4.18615
-2.89728
-13.6983
-11.8548
-2.89604
-8.47645
-14.0673
-6.8626
-14.7117
-4.84994
-9.46061
-13.2883
-7.21816
-10.3654
-7.03993
-3.92099
-5.36175
-13.2878
-4.438
-3.48018
-8.67381
-3.81252
-5.50136
-11.1209
-6.99407
-6.04495
-6.21975
-9.0611
-13.7446
-7.87697
-4.66584
-3.45328
-4.96593
-9.56351
-6.7182
-13.2218
-5.65939
-7.36846
-3.05216
-9.4737
-4.65676
-12.3667
-4.55622
-3.19992
-3.05652
-7.26129
-11.0592
-10.9261
-3.73051
-6.59586
-4.55709
-9.58514
-3.68871
-13.9456
-2.14703
-2.11284
-13.7684
-6.89743
-2.62917
-4.27429
-9.56717
-10.8968
-14.3498
-7.84805
-10.7817
-9.85654
-4.7101
-5.00902
-8.85304
-8.05483
-3.61397
-11.7493
-2.83175
-9.65589
-12.4106
-5.94528
-4.19467
-10.4886
-7.26466
-10.8609
-4.14032
-3.9618
-4.37795
-6.47732
-7.086
-1.45737
-2.37164
-11.6341
-10.3298
-4.73339
-5.00989
-7.51365
-5.20851
-4.94806
-9.75452
-7.78875
-9.08864
-10.1536
-6.75503
-2.25178
-12.616
-2.54434
-13.7583
-6.43678
-1.03544
-7.38508
-7.34984
-6.35825
-8.64958
-12.2378
-5.48981
-4.70249
-13.4165
-0.728324
-4.08349
-4.0091
-14.8589
-14.8568
-8.89739
-12.1417
-10.1834
-2.91391
-8.2423
-3.95112
-11.8619
-5.26022
-5.96954
-4.76184
-6.47783
-9.88712
-9.29265
-14.217
-5.69928
-6.21558
-5.72594
-3.07451
-1.81538
-6.18669
-0.719145
-5.86028
-3.75543
-4.46348
-5.22287
-8.34219
-11.3385
-9.69492
-8.79811
-12.9775
-1.69873
-13.243
-1.95081
-4.05425
-14.1155
-8.31963
-1.23055
-2.0086
-12.861
-9.93986
-9.16139
-11.3377
-7.59664
-13.9472
-14.5518
-2.21958
-10.6706
-5.61822
-7.51532
-14.6287
-3.86455
-5.87531
-3.65393
-3.72181
-6.18378
-6.86308
-5.51175
-4.3692
-4.05672
-13.336
-7.15204
-4.14587
-0.838567
-11.387
-4.967
-9.44852
-3.98248
-13.277
-6.76855
-1.33979
-6.57697
-2.47167
-13.4922
-3.61449
-5.086
-5.33581
-3.22301
-5.42198
-1.43748
-1.61665
-5.65092
-2.87851
-6.0139
-2.63258
-6.26513
-3.98827
-5.88389
-6.92615
-4.92291
-1.78411
-6.34521
-6.38809
-9.99336
-11.5951
-11.0777
-9.09311
-7.7088
-5.81777
-7.02766
-7.1379
-6.90547
-0.520025
-5.42428
-13.206
-10.197
-2.44584
-6.71747
-9.09491
-5.53853
-12.1872
-5.42984
-3.32965
-6.6788
-8.58652
-13.5699
-8.15448
-2.32288
-6.5958
-6.19334
-0.986011
-13.0841
-9.87825
-10.8669
-2.23859
-13.7244
-5.8436
-10.7746
-5.35309
-9.85538
-4.05913
-7.83274
-12.6328
-4.19721
-4.2197
-11.358
-1.40254
-1.17468
-8.28721
-6.21153
-13.2764
-8.16664
-4.57473
-8.05402
-3.43485
-6.22734
-11.9017
-8.74908
-2.72646
-3.63415
-7.28847
-12.9985
-14.8271
-12.9389
-8.33128
-11.1472
-3.50921
-12.4898
-4.05479
-1.96729
-5.07567
-5.69764
-11.6529
-13.2657
-0.924819
-6.51659
-10.003
-3.85644
-4.86613
-7.61739
-9.19672
-6.95758
-4.20061
-11.3369
-5.71376
-12.7108
-2.03162
-6.57762
-7.09186
-10.0068
-7.23526
-9.49665
-6.76635
-1.52759
-8.31157
-8.49858
-12.2843
-7.64221
-3.28507
-6.10068
-2.7965
-6.00507
-3.02935
-10.5916
-2.65726
-12.8061
-7.11362
-2.42029
-4.47028
-13.3518
-8.05011
-5.06386
-7.12023
-6.8175
-11.8627
-8.83138
-8.53507
-8.70845
-6.55773
-7.31301
-9.09226
-12.4238
-2.86285
-6.91355
-4.06574
-11.1058
-11.7078
-8.77278
-5.15841
-5.00388
-14.3219
-6.69285
-15.312
-12.9248
-5.66393
-7.37409
-4.82274
-2.01373