<VTKFile type="UnstructuredGrid" version="0.1" byte_order="LittleEndian">
  <UnstructuredGrid>
    <Piece NumberOfPoints="23679" NumberOfCells="47236">
      <Points>
        <DataArray type = "Float64" NumberOfComponents="3" format="ascii">
-5 -7 0.0 
15.5 -7 0.0 
15.5 7 0.0 
-5 7 0.0 
7.63511 2.91639 0.0 
1.87049 1.67084 0.0 
-0.605974 -0.287769 0.0 
2.37337 -3.10656 0.0 
0.929906 2.48659 0.0 
0.824948 -0.0289232 0.0 
0.579762 -2.6174 0.0 
2.75639 -0.320238 0.0 
0.600589 -0.0279367 0.0 
0.809974 0.0358912 0.0 
4.52511 -0.0925724 0.0 
0.692729 -0.023898 0.0 
2.14598 1.71184 0.0 
4.47114 -0.725108 0.0 
2.94972 0.812693 0.0 
-2.51884 -5.20772 0.0 
0.933054 -0.00978829 0.0 
-3.39004 -0.0550254 0.0 
0.209319 0.0741243 0.0 
-0.14562 -1.1416 0.0 
0.16355 -0.0415655 0.0 
4.37129 -0.146188 0.0 
0.125896 0.0617342 0.0 
2.89507 -0.00321849 0.0 
0.117818 -0.0547525 0.0 
0.74577 -0.0190427 0.0 
1.20907 -2.59566 0.0 
7.05945 1.36908 0.0 
1.18414 0.837326 0.0 
-0.664239 0.00933663 0.0 
0.988285 -0.635056 0.0 
0.79931 -0.0154644 0.0 
-0.169857 -0.752454 0.0 
-0.535193 0.781979 0.0 
4.50646 0.336854 0.0 
0.675201 -0.447934 0.0 
4.33956 3.92927 0.0 
7.20401 -0.547152 0.0 
5.06202 0.761268 0.0 
-1.83764 -0.830466 0.0 
2.97447 -2.59497 0.0 
1.77447 -4.2029 0.0 
0.203756 0.0741702 0.0 
2.3905 -0.208726 0.0 
-2.38226 0.0491773 0.0 
1.57579 -4.90006 0.0 
0.892623 0.876713 0.0 
0.619187 0.0692661 0.0 
1.81524 2.22933 0.0 
3.20393 -0.375619 0.0 
0.560088 -0.0307549 0.0 
-4.00064 -1.06423 0.0 
4.1637 1.41296 0.0 
2.03909 0.577378 0.0 
3.97155 -0.451817 0.0 
-1.0713 0.305678 0.0 
1.24518 -0.853569 0.0 
5.30713 0.379083 0.0 
0.993214 0.00283989 0.0 
0.513972 -3.72515 0.0 
4.25372 1.90694 0.0 
0.87556 0.025233 0.0 
0.401296 0.0780688 0.0 
0.44761 -0.0359067 0.0 
-3.06259 -0.640688 0.0 
0.58449 -3.29242 0.0 
4.47137 0.702541 0.0 
-0.523713 -0.272593 0.0 
-0.477755 -0.422453 0.0 
0.570246 -0.533547 0.0 
0.538433 -0.0310055 0.0 
5.2741 -1.01059 0.0 
2.21102 -1.39328 0.0 
1.30783 -0.274121 0.0 
4.18709 -1.48886 0.0 
-1.19726 -3.28581 0.0 
-0.0359698 -1.75399 0.0 
0.617039 -0.0263973 0.0 
5.83653 0.150199 0.0 
5.57946 0.224905 0.0 
0.377841 -0.038928 0.0 
1.38254 1.36675 0.0 
2.58372 -1.06479 0.0 
4.70454 -3.6075 0.0 
0.551438 0.113173 0.0 
0.532912 -0.0384617 0.0 
-0.392031 -0.729994 0.0 
4.38556 1.53498 0.0 
-1.34387 -2.96962 0.0 
4.73748 -0.295427 0.0 
5.13252 -2.84762 0.0 
5.34987 1.08334 0.0 
0.326684 0.0802051 0.0 
1.0681 0.191919 0.0 
0.292684 0.0800176 0.0 
-0.288073 -0.693253 0.0 
0.850052 0.029488 0.0 
7.72674 -2.22661 0.0 
5.73402 0.253504 0.0 
3.27298 3.73283 0.0 
2.31769 -0.889324 0.0 
3.24694 -2.57408 0.0 
-0.795775 -5.8192 0.0 
0.667923 -0.0361302 0.0 
0.835769 0.0314682 0.0 
4.69839 -1.50939 0.0 
4.91709 3.01814 0.0 
0.151849 -0.0409087 0.0 
3.55148 0.264681 0.0 
0.842117 -0.794382 0.0 
2.65591 1.43349 0.0 
0.932811 0.0144733 0.0 
-0.764917 -0.926758 0.0 
3.60734 -0.915315 0.0 
-0.605852 0.649115 0.0 
5.76621 -0.263827 0.0 
3.08877 -0.924843 0.0 
0.899825 -0.00795866 0.0 
6.80384 1.26814 0.0 
3.19847 -0.826277 0.0 
0.0166341 -0.0962489 0.0 
3.983 -1.51439 0.0 
5.81155 1.05052 0.0 
0.403773 -0.0376754 0.0 
4.06583 -0.737319 0.0 
3.85222 3.16404 0.0 
7.27994 -0.917065 0.0 
7.01199 -1.44503 0.0 
5.44634 0.7472 0.0 
5.43495 -0.0201864 0.0 
1.51213 -0.834065 0.0 
1.97076 0.806002 0.0 
0.634487 0.0595385 0.0 
-0.572414 -4.29099 0.0 
1.8826 -0.733417 0.0 
0.759381 -0.180619 0.0 
0.40132 0.0778474 0.0 
0.23454 -0.0430222 0.0 
-0.802406 2.95957 0.0 
0.691963 0.0549995 0.0 
5.47277 -0.740356 0.0 
14.1487 4.94071 0.0 
0.0736498 -1.30758 0.0 
-3.24273 0.882011 0.0 
1.37104 -0.876055 0.0 
-0.483647 -0.194829 0.0 
2.83565 1.06937 0.0 
5.52957 -1.21731 0.0 
0.947149 -0.00912481 0.0 
-0.408161 -0.611461 0.0 
-0.824132 1.91234 0.0 
-0.28194 0.734853 0.0 
-2.58987 -0.112571 0.0 
5.39673 0.0810302 0.0 
0.347037 -1.34491 0.0 
1.28521 2.08402 0.0 
0.220369 -0.0424097 0.0 
-0.490215 0.575937 0.0 
1.64934 -1.3049 0.0 
0.153085 0.0664047 0.0 
-0.251695 -2.55503 0.0 
0.826156 -0.0139773 0.0 
3.35673 0.186652 0.0 
4.62807 -2.39408 0.0 
-1.05781 -1.39579 0.0 
-2.54531 4.21509 0.0 
1.60336 1.51116 0.0 
0.713093 0.0498095 0.0 
0.643534 0.0642145 0.0 
-3.64101 4.81173 0.0 
-1.26922 -3.94313 0.0 
-0.342655 -1.12768 0.0 
3.30326 0.952175 0.0 
5.64264 0.331249 0.0 
1.34559 -0.214642 0.0 
1.60527 0.321358 0.0 
0.328683 -0.0401423 0.0 
3.81728 0.37784 0.0 
4.37562 0.758715 0.0 
5.5831 -1.82905 0.0 
-1.49688 0.101849 0.0 
-1.70027 -0.343758 0.0 
0.937041 0.0136815 0.0 
5.60623 1.42522 0.0 
-1.23169 -0.42816 0.0 
1.69627 2.52442 0.0 
1.36245 -1.5082 0.0 
1.25107 -3.80948 0.0 
2.74679 0.528168 0.0 
5.36614 -1.19177 0.0 
0.605019 1.16677 0.0 
-4.58423 -1.62108 0.0 
-2.02651 2.34708 0.0 
3.99339 3.63024 0.0 
-1.36142 -0.0750085 0.0 
5.19766 -0.482867 0.0 
-3.85513 -1.43107 0.0 
0.966422 0.00919783 0.0 
0.247834 0.0870881 0.0 
-0.465649 -0.817954 0.0 
4.29025 4.26714 0.0 
1.18312 -0.431176 0.0 
9.21986 0.0258833 0.0 
5.39136 -0.625475 0.0 
5.56604 0.611257 0.0 
1.96388 -1.61685 0.0 
0.196106 -0.0423443 0.0 
2.93186 0.364486 0.0 
5.88518 0.822328 0.0 
0.824138 -0.0139123 0.0 
-0.47228 -0.526413 0.0 
0.477118 -0.0338206 0.0 
-4.64673 -2.62107 0.0 
4.10712 -0.887195 0.0 
0.710355 0.0501717 0.0 
1.64936 -0.864917 0.0 
-1.61346 -3.22424 0.0 
0.0092848 0.0284272 0.0 
7.26993 2.53793 0.0 
1.1048 2.83071 0.0 
10.1588 1.30502 0.0 
-0.263385 -0.26391 0.0 
13.7005 7 0.0 
0.52333 0.0703707 0.0 
4.58595 -1.29531 0.0 
5.62067 -0.188463 0.0 
0.799738 -0.0147854 0.0 
11.9625 -2.20661 0.0 
5.40435 0.619553 0.0 
3.28687 -1.45096 0.0 
0.458966 0.0872446 0.0 
5.51568 -0.596029 0.0 
-1.63011 3.37507 0.0 
0.293181 -0.0414659 0.0 
0.865321 -2.71027 0.0 
0.786038 -0.0158333 0.0 
0.0736186 0.0492692 0.0 
4.13993 -2.76136 0.0 
0.881421 -0.0921271 0.0 
0.266317 -3.38104 0.0 
4.88629 -0.852705 0.0 
0.437008 0.076424 0.0 
3.8816 4.12562 0.0 
7.92184 -0.0908268 0.0 
0.176354 -0.0480078 0.0 
-0.662142 0.143724 0.0 
6.26015 0.128606 0.0 
0.915518 -0.00670685 0.0 
3.62021 -1.04763 0.0 
1.34876 0.720027 0.0 
0.982357 -3.49725 0.0 
0.663709 0.0566737 0.0 
5.3066 -0.705713 0.0 
-0.944514 -3.61431 0.0 
1.79294 -0.661223 0.0 
-0.342215 2.27409 0.0 
5.88842 -0.367403 0.0 
0.211839 -0.0420107 0.0 
0.654413 -0.0369233 0.0 
3.68564 6.54289 0.0 
5.00064 1.8515 0.0 
0.69027 0.0546811 0.0 
1.12166 0.441142 0.0 
7.31715 -3.60167 0.0 
2.79958 1.64327 0.0 
0.433465 0.0764782 0.0 
0.584196 0.0652607 0.0 
0.0636322 -0.695974 0.0 
-1.81416 1.63551 0.0 
0.74075 0.0465749 0.0 
2.69342 -1.49048 0.0 
4.86008 -1.00044 0.0 
0.822907 -0.0142337 0.0 
-0.164664 0.307939 0.0 
4.48127 5.51069 0.0 
4.4895 -4.79993 0.0 
5.37438 1.55243 0.0 
0.123991 1.28664 0.0 
6.41782 -0.499678 0.0 
3.16721 -0.70129 0.0 
1.99155 -0.729552 0.0 
4.69954 4.16905 0.0 
-1.91695 -2.36563 0.0 
8.09216 1.16816 0.0 
0.242046 0.0802658 0.0 
2.34355 2.47663 0.0 
2.72841 -0.285972 0.0 
13.5916 6.05949 0.0 
1.64671 4.40597 0.0 
3.03209 1.84093 0.0 
-0.498111 0.662759 0.0 
0.765551 -2.10462 0.0 
5.25655 0.61914 0.0 
6.04759 -2.75505 0.0 
1.12471 -0.237361 0.0 
6.40695 -2.14103 0.0 
4.37139 0.883681 0.0 
0.240004 -0.042139 0.0 
-4.55867 -4.42627 0.0 
-1.09286 3.96435 0.0 
-1.07351 0.572111 0.0 
3.73338 -0.828021 0.0 
-0.766762 -0.403459 0.0 
0.402752 -1.68281 0.0 
0.925255 0.0164317 0.0 
0.88786 -0.943606 0.0 
0.505244 -0.025873 0.0 
-0.299243 0.0389379 0.0 
3.36416 0.723434 0.0 
0.636773 1.7916 0.0 
0.0435288 1.09333 0.0 
0.74756 2.65039 0.0 
5.12608 -1.02106 0.0 
3.05399 0.794214 0.0 
3.3685 -2.29577 0.0 
9.40833 4.18552 0.0 
0.726496 1.10014 0.0 
-1.43587 -0.265452 0.0 
1.53809 -0.965095 0.0 
3.65342 -1.2467 0.0 
3.58193 2.86195 0.0 
1.58453 1.05649 0.0 
0.69113 -0.0216886 0.0 
4.67304 -0.737386 0.0 
2.403 -2.53676 0.0 
-0.883615 -1.03632 0.0 
0.570985 0.067201 0.0 
4.5489 1.01634 0.0 
1.30188 0.95494 0.0 
4.78484 -2.98767 0.0 
0.647276 3.74647 0.0 
1.64058 -1.98991 0.0 
5.60464 1.66025 0.0 
-2.46641 -2.76999 0.0 
0.0236771 0.0292808 0.0 
1.83737 -2.85625 0.0 
0.712397 -0.0207427 0.0 
-0.929233 -3.15638 0.0 
5.62429 -0.0217768 0.0 
0.696715 -0.0236006 0.0 
4.31467 0.462465 0.0 
1.90518 -1.00498 0.0 
3.8123 -0.317197 0.0 
-1.40698 0.43063 0.0 
8.12686 0.163945 0.0 
0.0912505 -0.0517404 0.0 
0.360402 0.0788181 0.0 
0.766222 5.08386 0.0 
0.543306 0.227627 0.0 
0.768677 -0.887089 0.0 
13.8069 6.49329 0.0 
3.14545 -0.527242 0.0 
3.00213 0.685174 0.0 
-3.26851 -1.17579 0.0 
0.326091 -0.0407782 0.0 
-0.350969 -1.28117 0.0 
-1.34372 -4.38367 0.0 
-1.47047 0.274883 0.0 
8.69891 -0.824176 0.0 
0.572752 0.0666296 0.0 
3.02391 1.56815 0.0 
0.546825 -0.0304958 0.0 
7.53034 -2.92118 0.0 
0.862614 -3.9233 0.0 
7.46433 -0.686568 0.0 
0.435695 0.0763326 0.0 
-0.291216 -0.600905 0.0 
0.958024 -0.00418663 0.0 
0.996359 0.00209859 0.0 
-3.04054 -1.35802 0.0 
7.86523 -1.29492 0.0 
0.824153 0.0339519 0.0 
-2.0843 -1.39076 0.0 
2.0242 4.23744 0.0 
6.10554 -1.09258 0.0 
0.070474 0.0518922 0.0 
0.253412 0.0852338 0.0 
4.90662 -3.37133 0.0 
5.3389 -1.37998 0.0 
8.18441 -5.4394 0.0 
4.74018 -1.11041 0.0 
-1.45792 -1.69797 0.0 
-0.658439 1.28669 0.0 
-1.47154 1.02941 0.0 
0.548603 -1.30682 0.0 
-4.28372 4.01846 0.0 
0.597388 -0.031556 0.0 
0.976283 3.91053 0.0 
-1.97604 3.44687 0.0 
-0.823498 -1.2495 0.0 
-0.676338 -0.322971 0.0 
0.0194499 -2.00073 0.0 
6.06625 2.2173 0.0 
4.77636 1.32682 0.0 
3.5286 -1.40716 0.0 
2.2348 6.10147 0.0 
4.3501 1.14584 0.0 
-0.374853 0.997283 0.0 
0.331239 -0.0398749 0.0 
2.92416 0.944765 0.0 
-1.08711 -0.79613 0.0 
-2.10643 0.811211 0.0 
10.0853 -2.20029 0.0 
9.19723 -1.4685 0.0 
-3.63493 -2.23583 0.0 
9.13289 -4.40814 0.0 
0.13646 -0.0401233 0.0 
3.73879 -1.49966 0.0 
1.16246 1.31001 0.0 
1.76621 -0.985528 0.0 
0.279409 0.0783782 0.0 
4.49882 0.813878 0.0 
0.0773295 0.0501322 0.0 
-1.7711 -2.7915 0.0 
2.21785 -2.83793 0.0 
1.9729 0.35934 0.0 
6.07917 0.172121 0.0 
-1.06801 -1.19434 0.0 
-0.742511 -0.787541 0.0 
4.55801 -0.996424 0.0 
10.0032 -3.21238 0.0 
4.23955 3.27 0.0 
4.4588 0.213546 0.0 
-3.41169 -1.50587 0.0 
0.374392 0.944982 0.0 
[...]
<PointData>
  <DataArray type = "Float64" Name="VitesseP1" NumberOfComponents="3" format="ascii">
1 0 0.0 
1.00277 0 0.0 
0.997797 0 0.0 
1 0 0.0 
0.999971 -0.00102152 0.0 
1.00628 -0.00602673 0.0 
0.983529 -0.00244365 0.0 
1.00112 -0.00085434 0.0 
1.00682 -0.000998427 0.0 
0.624803 0.0384585 0.0 
1.00099 -0.0011381 0.0 
0.999623 -0.00345704 0.0 
0.0115421 0.000357387 0.0 
0 0 0.0 
0.945272 -0.00157065 0.0 
0.0876367 0.00546229 0.0 
1.00501 -0.00555929 0.0 
1.00165 -0.00202245 0.0 
1.00166 -0.00549573 0.0 
1.00009 -0.000177169 0.0 
0.14918 0.0100372 0.0 
0.999511 0.00133738 0.0 
0.0776948 0.00947288 0.0 
1.00079 -0.00586627 0.0 
1.25671e-08 -4.78327e-10 0.0 
0.998492 -0.00238519 0.0 
3.13e-08 6.97049e-09 0.0 
0.844944 -0.00390311 0.0 
1.13924 -0.112876 0.0 
0.0182205 0.00170374 0.0 
1.00107 -0.000895024 0.0 
1.0015 -0.00135681 0.0 
1.0146 -0.017068 0.0 
0.982484 0.00840534 0.0 
1.00259 0.00829459 0.0 
0.0132163 0.000624956 0.0 
0.999219 -0.0118771 0.0 
1.00319 0.0187508 0.0 
1.00141 -0.00280851 0.0 
1.01653 0.0122481 0.0 
1.0007 -0.00143234 0.0 
1.00494 8.76946e-05 0.0 
1.00161 -0.00242547 0.0 
0.997253 0.000748357 0.0 
1.00122 -0.00105266 0.0 
1.00099 -0.000626046 0.0 
0.174169 0.0175533 0.0 
0.998256 -0.00405976 0.0 
0.998383 0.00269282 0.0 
1.00091 -0.000468852 0.0 
1.02356 -0.0132803 0.0 
0.411505 -0.0405229 0.0 
1.00544 -0.00365287 0.0 
1.00065 -0.00304716 0.0 
0.0309898 0.00188886 0.0 
0.999822 0.000428924 0.0 
1.00151 -0.0030908 0.0 
1.00105 -0.0106325 0.0 
1.00142 -0.00246661 0.0 
0.993606 0.00927979 0.0 
1.00025 0.00338221 0.0 
1.00117 -0.0018183 0.0 
-3.04471e-09 -6.38347e-10 0.0 
1.00074 -0.000779646 0.0 
1.00158 -0.00276436 0.0 
-0.000848659 0.000159551 0.0 
3.21473e-08 -4.24004e-10 0.0 
0 0 0.0 
0.999184 0.00109465 0.0 
1.0008 -0.000896698 0.0 
1.00159 -0.00289826 0.0 
0.980845 -0.00438687 0.0 
0.986086 -0.00867615 0.0 
1.01717 0.00502293 0.0 
0 0 0.0 
1.00202 -0.00161151 0.0 
1.00001 -0.000995171 0.0 
0.987466 0.00640998 0.0 
1.00155 -0.0016617 0.0 
1.00006 -0.00073745 0.0 
1.00096 -0.00266715 0.0 
0 0 0.0 
0.983039 -0.00178855 0.0 
1.01367 -0.000474823 0.0 
3.42558e-08 1.57054e-09 0.0 
1.00991 -0.00804 0.0 
0.999883 -0.00179362 0.0 
1.00176 -0.000793153 0.0 
1.1323 -0.068949 0.0 
0.388768 0.0202827 0.0 
0.994744 -0.00939121 0.0 
1.00152 -0.00285176 0.0 
0.999862 -0.000786918 0.0 
1.00175 -0.00208837 0.0 
1.00197 -0.000994967 0.0 
1.00138 -0.00227078 0.0 
0.11606 0.000464629 0.0 
0.996833 -0.0611765 0.0 
0.148777 0.00371026 0.0 
0.995493 -0.0118055 0.0 
-1.0671e-09 2.07518e-11 0.0 
1.00279 -0.000902678 0.0 
1.0068 -0.00274942 0.0 
1.00156 -0.00166856 0.0 
0.999184 -0.00170886 0.0 
1.0013 -0.00110654 0.0 
1.00036 -0.000210238 0.0 
0.595698 0.0344987 0.0 
0 0 0.0 
1.00182 -0.00155273 0.0 
1.00081 -0.00179238 0.0 
0 0 0.0 
1.00099 -0.00391535 0.0 
1.0055 0.00451264 0.0 
1.00299 -0.00550885 0.0 
0 0 0.0 
0.995332 -0.00378675 0.0 
1.00109 -0.0022029 0.0 
0.999141 0.0191964 0.0 
1.00525 -0.00435009 0.0 
1.00051 -0.00223921 0.0 
0 0 0.0 
1.00202 -0.00172764 0.0 
1.0006 -0.0023725 0.0 
0.994163 -0.169885 0.0 
1.00144 -0.0016734 0.0 
1.00084 -0.002293 0.0 
0 0 0.0 
1.00139 -0.00219605 0.0 
1.00146 -0.00206179 0.0 
1.00408 -0.000652272 0.0 
1.00248 -0.0014328 0.0 
1.00133 -0.00231664 0.0 
0.906142 -0.00169729 0.0 
0.998425 0.00172813 0.0 
1.00317 -0.0105886 0.0 
0 0 0.0 
1.00039 -0.000560689 0.0 
0.997587 -0.000641742 0.0 
1.01631 0.0358389 0.0 
0 0 0.0 
0.0478383 0.000486266 0.0 
1.00355 0.00263202 0.0 
0.0611469 -0.00757231 0.0 
1.00217 -0.00178206 0.0 
0.997655 -0.000241542 0.0 
1.00216 -0.0042632 0.0 
0.999776 0.00198314 0.0 
0.999372 0.00246595 0.0 
0.976319 -0.00284391 0.0 
1.00225 -0.0056544 0.0 
1.00231 -0.00127016 0.0 
0.16083 0.0106607 0.0 
0.991823 -0.0103476 0.0 
1.00489 0.00589237 0.0 
1.009 0.0248647 0.0 
0.998651 0.00216838 0.0 
0.95966 -0.00702345 0.0 
1.00305 -0.00264121 0.0 
1.00772 -0.00310074 0.0 
7.98493e-09 -1.79069e-10 0.0 
0.99876 0.0237494 0.0 
1.00004 9.12868e-05 0.0 
0 0 0.0 
1.00043 -0.0014287 0.0 
0.025233 0.00192199 0.0 
1.00012 -0.00418182 0.0 
1.00181 -0.00120759 0.0 
0.99778 -0.00192213 0.0 
1.00071 0.00107354 0.0 
1.00771 -0.00697967 0.0 
0 0 0.0 
0.251645 -0.0272191 0.0 
1.00019 0.000481885 0.0 
1.00017 -0.000539388 0.0 
0.999075 -0.00581707 0.0 
1.00179 -0.0045638 0.0 
0.999686 0.00025386 0.0 
0.985277 0.00400005 0.0 
0.996735 -0.0178213 0.0 
0 0 0.0 
1.00119 -0.00358098 0.0 
1.00159 -0.0029944 0.0 
1.00209 -0.00115275 0.0 
0.995607 0.00506326 0.0 
0.996205 0.00237602 0.0 
0 0 0.0 
1.001 -0.00207497 0.0 
0.993695 0.00144102 0.0 
1.00524 -0.00273285 0.0 
1.00104 9.05838e-06 0.0 
1.00092 -0.000717025 0.0 
1.00089 -0.00616192 0.0 
1.00213 -0.00172733 0.0 
1.02137 -0.00154256 0.0 
0.999981 0.000103277 0.0 
1.00144 0.0032937 0.0 
1.00105 -0.00168534 0.0 
0.99418 0.00422019 0.0 
1.00202 -0.00159158 0.0 
0.99979 0.000330764 0.0 
-0.0126203 0.00255978 0.0 
1.09453 0.0825301 0.0 
0.995499 -0.00751168 0.0 
1.00063 -0.00124355 0.0 
0.994791 0.0100255 0.0 
0.974578 -0.000817328 0.0 
1.00278 -0.00230927 0.0 
1.00241 -0.00198907 0.0 
1.00048 -0.000689228 0.0 
2.00508e-08 -9.77067e-10 0.0 
1.00055 -0.00538404 0.0 
1.00246 -0.00155593 0.0 
0.0169272 0.00110931 0.0 
0.98917 -0.00904615 0.0 
0 0 0.0 
0.999996 1.63034e-05 0.0 
1.00149 -0.00206863 0.0 
0 0 0.0 
0.998409 0.000768924 0.0 
0.99993 -0.000621097 0.0 
0.690613 0.504784 0.0 
1.00022 -0.00118105 0.0 
1.00544 -0.00108277 0.0 
1.00233 -0.00104754 0.0 
0.973146 -0.0215383 0.0 
0.997886 0 0.0 
0 0 0.0 
1.00174 -0.00167471 0.0 
0.993702 -0.00080266 0.0 
0 0 0.0 
1.00394 -0.00107822 0.0 
1.00143 -0.00199945 0.0 
1.00092 -0.00171867 0.0 
0.858099 -0.0388116 0.0 
1.00164 -0.00112003 0.0 
1.00182 0.00202092 0.0 
1.79311e-08 8.22241e-10 0.0 
1.00102 -0.000994006 0.0 
0 0 0.0 
6.97917e-08 2.11059e-08 0.0 
1.00164 -0.00108402 0.0 
1.0007 0.0467233 0.0 
1.00068 -0.000901672 0.0 
1.00192 -0.00179774 0.0 
0 0 0.0 
1.00092 -0.00136528 0.0 
0.971223 -0.000490279 0.0 
0.696279 -0.0260703 0.0 
0.984419 0.0131946 0.0 
0.973098 -0.0012779 0.0 
0 0 0.0 
1.00108 -0.00207697 0.0 
1.00954 -0.0189904 0.0 
1.00089 -0.00080275 0.0 
0.00472465 -0.00057097 0.0 
1.00162 -0.00156064 0.0 
1.00022 -0.000709146 0.0 
0.996796 -0.000317156 0.0 
1.00631 0.00380253 0.0 
1.01182 -0.00560221 0.0 
0 0 0.0 
0.600079 0.0344102 0.0 
1.00037 -0.000175877 0.0 
1.00129 -0.00225816 0.0 
0.0423917 -0.00519552 0.0 
1.01193 -0.0353981 0.0 
1.00235 -0.000600721 0.0 
1.0031 -0.00477705 0.0 
0 0 0.0 
8.06846e-09 -5.29089e-10 0.0 
1.00577 -0.0134046 0.0 
1.0013 0.00476707 0.0 
0.00305778 -0.000410163 0.0 
1.00049 -0.00143638 0.0 
1.00192 -0.00177364 0.0 
0.0268132 0.00160183 0.0 
0.989884 0.0600863 0.0 
1.00019 -0.000612479 0.0 
1.00159 -0.0004945 0.0 
1.00133 -0.00212535 0.0 
1.01598 0.00759551 0.0 
1.01129 -0.0051754 0.0 
1.00039 -0.00255874 0.0 
0.997791 -0.00114032 0.0 
1.00043 -0.00124025 0.0 
0.999433 -0.000513088 0.0 
1.00087 -0.00159767 0.0 
0.553649 0.0405258 0.0 
1.00375 -0.00327095 0.0 
0.999326 -0.00355948 0.0 
0.997853 -0.000136529 0.0 
1.00218 -0.000659065 0.0 
1.00282 -0.00410346 0.0 
1.00077 0.0217099 0.0 
1.00135 -0.00112428 0.0 
1.00118 -0.00252726 0.0 
1.00226 -0.000912233 0.0 
0.986255 0.0173349 0.0 
1.00249 -0.000952416 0.0 
1.0016 -0.00300387 0.0 
0 0 0.0 
1 -2.83196e-05 0.0 
1.00198 0.00135304 0.0 
0.996797 0.0106999 0.0 
1.00118 -0.00224917 0.0 
0.989049 -0.00152255 0.0 
1.002 -0.0019397 0.0 
-2.70748e-08 4.29291e-09 0.0 
1.00414 0.00264165 0.0 
0 0 0.0 
0.952676 0.0176648 0.0 
1.0015 -0.00446097 0.0 
1.01176 -0.000285115 0.0 
1.01831 0.0122894 0.0 
1.00634 -0.00027279 0.0 
1.00186 -0.00163473 0.0 
1.00159 -0.00520761 0.0 
1.00126 -0.00122018 0.0 
0.999002 -0.000479606 0.0 
1.02159 -0.00497367 0.0 
0.994905 0.00277797 0.0 
0.999127 0.00118007 0.0 
1.00112 -0.00189805 0.0 
1.00181 -0.0024285 0.0 
1.0079 -0.0113136 0.0 
0 0 0.0 
1.00175 -0.0019279 0.0 
1.00104 -0.000950295 0.0 
0.996262 -0.00293296 0.0 
0.0281968 -0.00219753 0.0 
1.00154 -0.002811 0.0 
1.01216 -0.0140623 0.0 
1.00184 -0.00097046 0.0 
1.00336 6.73919e-05 0.0 
1.00089 -0.000647321 0.0 
1.00123 -0.00186819 0.0 
0.999707 -0.000275707 0.0 
5.7599e-08 2.91067e-08 0.0 
1.00107 -0.000844654 0.0 
2.50542e-08 1.89698e-09 0.0 
1.00012 -0.000881075 0.0 
0.918556 0.000212363 0.0 
0.0849218 0.00558723 0.0 
1.00144 -0.00301656 0.0 
0.998974 -0.000431045 0.0 
1.00128 -0.00267721 0.0 
0.996547 0.00706052 0.0 
0.97542 -0.00178843 0.0 
1.14125 -0.155109 0.0 
1.22513e-08 5.54911e-10 0.0 
1.00172 -3.88872e-05 0.0 
1.10749 -0.038875 0.0 
1.00597 0.00246215 0.0 
0.997851 -6.73476e-05 0.0 
1.00034 -0.00283352 0.0 
1.00144 -0.00535564 0.0 
0.999462 0.000587694 0.0 
0.0125061 0.000617196 0.0 
0.999301 -0.0046101 0.0 
1.00021 -0.000435493 0.0 
0.996156 0.00599955 0.0 
1.00953 -0.00167573 0.0 
0.00857501 -0.000987675 0.0 
1.00259 -0.00454551 0.0 
0 0 0.0 
1.0025 -0.000659831 0.0 
1.00082 -0.000703714 0.0 
1.00665 -0.00250798 0.0 
0 0 0.0 
0.993524 -0.0137656 0.0 
0 0 0.0 
0 0 0.0 
0.999329 0.000485524 0.0 
1.00215 -0.00113104 0.0 
0.00057396 -0.000100767 0.0 
0.998481 8.17587e-05 0.0 
1.00213 -0.000964877 0.0 
1.002 -0.00124646 0.0 
0.797486 0.251798 0.0 
0.959781 0.0669736 0.0 
1.00183 -0.000848168 0.0 
1.00212 -0.00149059 0.0 
1.00226 -0.000264028 0.0 
1.00181 -0.00169721 0.0 
0.998559 -0.00100828 0.0 
1.00548 0.0106669 0.0 
0.999917 0.00712213 0.0 
1.00344 -0.00150031 0.0 
1.00004 0.000393862 0.0 
0.188028 0.0108544 0.0 
1.00304 -0.000298503 0.0 
1.00142 0.00187938 0.0 
0.997383 -0.00291457 0.0 
0.986122 -0.00176694 0.0 
1.00083 -0.00205776 0.0 
1.00069 -0.00161984 0.0 
1.00134 -0.00259842 0.0 
1.00108 -0.00177158 0.0 
1.00097 -0.000246525 0.0 
1.00148 -0.00299366 0.0 
1.00876 0.0163782 0.0 
0 0 0.0 
1.00196 -0.00550168 0.0 
0.994754 -0.00122895 0.0 
0.999196 0.00443592 0.0 
1.00272 -0.00100472 0.0 
1.00066 -0.00121318 0.0 
0.999823 8.30819e-05 0.0 
1.00258 -0.00055262 0.0 
0 0 0.0 
1.00127 -0.00170698 0.0 
1.0127 -0.0078564 0.0 
0.998887 7.53452e-05 0.0 
0 0 0.0 
1.0016 -0.0028804 0.0 
0 0 0.0 
0.999699 -0.000601185 0.0 
1.0011 -0.000873188 0.0 
0.998668 -0.0111812 0.0 
0.979464 -0.00691406 0.0 
0.996957 -0.0019463 0.0 
0.994011 -0.00410567 0.0 
1.00176 -0.0018384 0.0 
1.00275 -0.000756254 0.0 
1.00112 -0.00187078 0.0 
1.00094 -0.00282035 0.0 
0.999603 0.000364341 0.0 
1.02781 0.00563851 0.0 
0 0 0.0 
1.00521 -0.000766887 0.0 
1.02223 0.0159682 0.0 
0.985411 0.000740616 0.0 
0.99856 0.0133994 0.0 
1.00016 -0.00125773 0.0 
0.0113864 -0.00166044 0.0 
1.00158 -0.00173046 0.0 
1.00808 -0.00869052 0.0 
1.00099 0.00168207 0.0 
0.995679 -0.000482856 0.0 
4.31326e-08 8.27164e-10 0.0 
1.00352 -0.000907869 0.0 
1.00153 -0.00266333 0.0 
0 0 0.0 
1.00014 -0.00180311 0.0 
1.00285 0.00631812 0.0 
2.61718e-07 -9.20825e-09 0.0 
1.00022 -0.00234679 0.0 
1.00232 -0.00284382 0.0 
1.00046 -0.00150983 0.0 
0.0183393 0.00049224 0.0 
1.00793 0.00153019 0.0 
1.0021 -0.000255825 0.0 
1.00259 0.00331684 0.0 
1.01458 0.00161599 0.0 
1.00327 -0.000102837 0.0 
1.00028 -0.00105877 0.0 
1.00253 -0.000353292 0.0 
1.00024 0.00404412 0.0 
1.00123 -0.00210252 0.0 
0.108159 0.0203377 0.0 
1.00099 -0.0010704 0.0 
0.283302 0.0217381 0.0 
1.00163 -0.000859505 0.0 
1.00014 0.00118967 0.0 
1.00017 0.00279859 0.0 
1.00127 -0.000448959 0.0 
1.00263 -0.000678658 0.0 
1.00005 0.0019277 0.0 
0.997199 0.00462082 0.0 
1.00192 -0.000233654 0.0 
1.02506 -0.00776255 0.0 
1.00011 -0.000788727 0.0 
1.00708 -0.00145533 0.0 
0 0 0.0 
1.00124 -0.00224449 0.0 
1.00146 -0.00424476 0.0 
0.998252 -0.00450565 0.0 
1.00554 0.0220438 0.0 
1.00031 -0.00594674 0.0 
0.998956 -0.00029785 0.0 
1.00209 -0.000759531 0.0 
0.947821 -0.00021798 0.0 
0.963245 0.00193224 0.0 
8.78782e-09 1.79936e-10 0.0 
1.00283 0.00218569 0.0 
1.0015 -0.00265073 0.0 
1.0031 -0.00166634 0.0 
1.00421 -0.000875328 0.0 
0.995911 0.00377655 0.0 
0 0 0.0 
0.996805 -0.000477698 0.0 
0.999896 0.000499604 0.0 
1.00199 -0.00282558 0.0 
0 0 0.0 
0.999978 6.91873e-05 0.0 
1.00061 -0.00019243 0.0 
1.00202 -0.000909428 0.0 
0.999047 -0.000894205 0.0 
1.00119 -0.000736715 0.0 
1.00644 -0.00470895 0.0 
0.930863 0.00274575 0.0 
0.999966 -0.00287133 0.0 
1.00254 -0.000528958 0.0 
1.00193 -0.00326392 0.0 
0.997771 -9.22197e-05 0.0 
1.00105 -0.000851182 0.0 
1.00145 -0.0015723 0.0 
1.00001 0.00447331 0.0 
1.00234 -0.00407021 0.0 
0.998025 -0.000326048 0.0 
1.00167 -0.000970841 0.0 
1.00153 -0.00196596 0.0 
1.00009 0.000345857 0.0 
0.0908549 -0.00562648 0.0 
1.03509 -0.0446491 0.0 
1.002 -0.00029724 0.0 
0.9999 0.00169463 0.0 
0.144543 -0.00822225 0.0 
1.00141 -0.00254457 0.0 
0.566551 -0.0549922 0.0 
1.00274 -0.00321486 0.0 
1.00004 -0.000147633 0.0 
0.997794 0.00331936 0.0 
1.00069 -0.00109158 0.0 
1.00254 -0.00411221 0.0 
0.00959074 0.000378094 0.0 
1.00061 -0.000278121 0.0 
1.00039 -0.00175182 0.0 
1.00232 -0.000877524 0.0 
0.999726 -0.00289971 0.0 
1.00206 -0.00692543 0.0 
1.00134 -0.00223504 0.0 
1.0086 -0.00194031 0.0 
1.00151 -0.00244491 0.0 
0.999578 -0.0153817 0.0 
1.00247 0.00175834 0.0 
0.996473 0.000354012 0.0 
1.00072 0.00132613 0.0 
6.48188e-09 5.04547e-10 0.0 
0.997785 -3.23647e-05 0.0 
8.19421e-08 3.83101e-08 0.0 
1.00026 -0.00123 0.0 
0.992025 0.00499464 0.0 
1.00227 -0.00111807 0.0 
1.00239 -0.00119919 0.0 
1.00085 -0.00115102 0.0 
1.00223 -0.0105139 0.0 
0 0 0.0 
0.997899 -0.00062743 0.0 
0.994311 -0.000742809 0.0 
0.995907 -0.000810485 0.0 
0.0904166 0.0013469 0.0 
0.0222341 0.00109682 0.0 
0 0 0.0 
1.00388 -0.000496789 0.0 
0.99976 -0.000896021 0.0 
0.999881 -0.000492969 0.0 
1.00127 -0.00113236 0.0 
1.00362 -0.00214992 0.0 
1.00055 -0.0020581 0.0 
0.997851 3.54334e-05 0.0 
1.00056 -0.000889043 0.0 
0.999839 -0.00103721 0.0 
0.0517816 -0.00716762 0.0 
0.996982 -0.000513851 0.0 
1.00719 -0.000774838 0.0 
1.0134 0.00483176 0.0 
1.00266 -0.00063028 0.0 
0.998974 -5.3045e-05 0.0 
1.00141 -0.00274239 0.0 
1.0022 -0.00352919 0.0 
1.00147 -0.00258537 0.0 
1.00383 0.000533034 0.0 
1.00011 -0.000855292 0.0 
1.00063 -0.00589706 0.0 
1.00306 -0.00167721 0.0 
1.00199 -0.00108044 0.0 
1.00148 -0.000982576 0.0 
1.00074 -0.000948572 0.0 
0.985826 -0.00562158 0.0 
1.00013 -0.0076102 0.0 
1.00466 -0.000926369 0.0 
1.00052 -0.00773017 0.0 
1.00425 -0.00716258 0.0 
1.00236 0.00406629 0.0 
1.00507 0.0156248 0.0 
1.01778 0.000330515 0.0 
1.00189 -0.00459085 0.0 
0.486503 0.186753 0.0 
1.00442 0.00390792 0.0 
1.00042 -0.000795672 0.0 
0.999155 -0.00752587 0.0 
1.0019 -0.000516034 0.0 
1.00001 0.000496199 0.0 
1.00196 -0.00233788 0.0 
1.00148 -0.000521757 0.0 
1.00176 -0.00114296 0.0 
1.00222 0.00260752 0.0 
1.0025 -0.000783124 0.0 
2.60598e-08 -3.2912e-09 0.0 
0.999329 -0.00234905 0.0 
0.999388 -0.000592259 0.0 
1.00348 -0.00703496 0.0 
0.999772 -0.000400449 0.0 
1.00058 0.000149371 0.0 
1.00306 -0.00117326 0.0 
1.00413 -0.000962229 0.0 
1.00198 -0.00318648 0.0 
1.00178 -0.00415 0.0 
0.998332 -0.0015092 0.0 
0.999934 0.00112568 0.0 
1.00157 -0.00471228 0.0 
1.00485 0.000923905 0.0 
1.00068 -0.00171826 0.0 
1.00094 -0.00201385 0.0 
0.999105 -0.00178698 0.0 
1.00044 0.00602623 0.0 
1.00247 -0.000930785 0.0 
0 0 0.0 
0.994995 -0.00116805 0.0 
0.999686 -0.000854604 0.0 
1.00156 -0.00301643 0.0 
4.99021e-09 -9.00368e-11 0.0 
1.00043 -0.00036348 0.0 
1.00063 -0.00168389 0.0 
0.998989 -0.00165344 0.0 
1.00091 -0.00214477 0.0 
0.999039 -0.00715829 0.0 
1.00127 -0.000744855 0.0 
1.00018 0.000585891 0.0 
0 0 0.0 
1.00239 -0.00143666 0.0 
1.0003 -0.00233035 0.0 
1.00095 -0.00148318 0.0 
1.00605 -0.00237428 0.0 
1.00332 -0.00198136 0.0 
0.999922 0.000237149 0.0 
1.00091 -0.000308094 0.0 
1.00141 -0.00330563 0.0 
1.00126 -0.00354127 0.0 
1.00751 -0.0332058 0.0 
0.998828 -0.00154236 0.0 
1.00095 -0.00229364 0.0 
1.00261 -6.87879e-05 0.0 
1.0012 -0.000110992 0.0 
0.926157 -0.00538888 0.0 
0 0 0.0 
1.00151 0.000741499 0.0 
0.999212 0.00187896 0.0 
0.989087 0.00283451 0.0 
1.00296 0.000358458 0.0 
1.00156 -0.00248155 0.0 
1.00178 -0.00146756 0.0 
0.999685 0.000142348 0.0 
1.00218 -0.000118524 0.0 
0.999294 0.00388746 0.0 
1.00173 -0.00158612 0.0 
0.999746 -0.000467341 0.0 
1.00445 -0.00380564 0.0 
0.999521 -0.000325496 0.0 
1.00159 -0.000411727 0.0 
0.0140979 0.000827641 0.0 
1.01448 -0.00369656 0.0 
1.00877 -0.0046054 0.0 
1.01307 -0.00837188 0.0 
1.00173 -0.000170011 0.0 
1.00417 -0.00812306 0.0 
1.00164 -0.00160778 0.0 
0 0 0.0 
1.001 -0.0012021 0.0 
0.732719 -0.135806 0.0 
1.04159 -0.0462671 0.0 
0.99745 0.00577102 0.0 
1.00002 -3.92827e-05 0.0 
0.997741 -0.0051116 0.0 
0.990212 0.000426917 0.0 
1.00085 0.00976508 0.0 
1.00261 -0.000511058 0.0 
0.32686 0.0333011 0.0 
1.00149 0.00403074 0.0 
1.0016 -0.00118683 0.0 
1.00168 -0.00157074 0.0 
1.00151 -0.00269274 0.0 
0 0 0.0 
0.999269 -0.000312033 0.0 
1.00109 -0.000700603 0.0 
0.99934 0.00591637 0.0 
0.999726 -0.00231473 0.0 
1.00133 -0.000705143 0.0 
1.00008 -0.00145043 0.0 
1.00253 -0.00345053 0.0 
0.995537 -0.0129926 0.0 
0.998409 -0.000373266 0.0 
0.99871 0.00311638 0.0 
0.999438 -0.000604589 0.0 
1.00099 -0.00053787 0.0 
1.00087 -0.00103351 0.0 
1.00154 0.00106724 0.0 
1.05026 -0.223237 0.0 
0.997225 -0.00662432 0.0 
0.998511 0.00572295 0.0 
1.00001 0.00033897 0.0 
1.00346 -0.00182511 0.0 
1.00192 0.00288248 0.0 
1.00187 -0.000394618 0.0 
0.999934 -0.00076083 0.0 
1.00678 -0.00138898 0.0 
1.00425 -0.0267733 0.0 
1.00188 -0.00147052 0.0 
1.00137 -0.000936803 0.0 
0.996544 -0.000352083 0.0 
0.991036 0.00131922 0.0 
1.00442 -0.000888692 0.0 
1.00072 -0.000356556 0.0 
0.973908 -0.000609456 0.0 
1.00137 -0.000914086 0.0 
0.999103 -0.00263685 0.0 
1.00168 -0.000704854 0.0 
1.00009 -0.00123775 0.0 
1.00295 -0.000496266 0.0 
1.00084 -0.00301914 0.0 
1.00052 -0.000963815 0.0 
1.00067 0.000537341 0.0 
1.00082 -0.000433979 0.0 
1.00043 -0.000994986 0.0 
0.999872 0.00163327 0.0 
1.00864 -0.00132136 0.0 
1.00312 -0.000579859 0.0 
1.00139 -0.000488092 0.0 
1.00104 -0.000764763 0.0 
0.998403 0.00172649 0.0 
1.00441 -0.000668119 0.0 
1.00154 -0.00123839 0.0 
0.999988 -0.000148199 0.0 
1.00106 -0.000609198 0.0 
0.998909 -0.00244358 0.0 
0.999996 -2.46265e-05 0.0 
1.00015 -0.00121588 0.0 
1.00018 -0.000335282 0.0 
1.00003 -4.78472e-05 0.0 
1.00081 -0.0011944 0.0 
0.997963 -8.94877e-05 0.0 
0 0 0.0 
1.0011 -0.00211065 0.0 
0.999307 0.00241855 0.0 
0.999586 -0.000408541 0.0 
0.99919 -0.00060004 0.0 
1.00223 -0.0014697 0.0 
1.0001 -0.000109677 0.0 
1.0021 -0.00192922 0.0 
1.00194 -0.000814599 0.0 
0 0 0.0 
1.00816 -0.00212867 0.0 
1.05035 -0.0724212 0.0 
1.00166 -0.00124966 0.0 
1.00107 -0.000824648 0.0 
0.998485 -0.000341927 0.0 
1.00001 0.000147037 0.0 
1.00012 -0.0108292 0.0 
1.00199 -0.00351785 0.0 
1.00062 -0.000384902 0.0 
0 0 0.0 
1.00139 -0.00102848 0.0 
0.99974 -0.000825625 0.0 
1.00377 0.000226882 0.0 
0.999112 -0.00371597 0.0 
1.00715 -0.000207823 0.0 
1.0011 -0.000444392 0.0 
1.00018 -0.00299078 0.0 
0.997597 0.0549693 0.0 
1.00169 -0.00200507 0.0 
1.00106 -0.00165633 0.0 
1.00166 -0.00298244 0.0 
1.00172 0.00508598 0.0 
1.0021 -0.00139217 0.0 
1.00424 0.00205093 0.0 
1.00482 0.000206851 0.0 
0.999243 -0.000269248 0.0 
1.00185 -0.00162928 0.0 
1.00264 -0.000209629 0.0 
1.00079 -0.00232764 0.0 
1.00104 -0.000347841 0.0 
1.00052 -7.41211e-05 0.0 
0.999748 -0.000774346 0.0 
1.00069 0.000771735 0.0 
1.00184 0.03273 0.0 
1.00142 0.000477717 0.0 
-2.37483e-09 2.62635e-11 0.0 
1.00048 0.00178543 0.0 
1.00081 -0.00187358 0.0 
1.00368 0.0056792 0.0 
1.00606 -0.00266678 0.0 
1 -0.000466119 0.0 
1.00026 -0.00126164 0.0 
1.00021 -0.00300263 0.0 
0.999052 -0.00215258 0.0 
1.00311 -0.00111378 0.0 
0.99959 -0.00055102 0.0 
0.994505 0.00328956 0.0 
0.999609 -0.00352565 0.0 
0.999468 0.000271396 0.0 
1.00157 -0.0029691 0.0 
0.966676 0.000211876 0.0 
1.0015 -0.00175284 0.0 
1.00071 -0.00155619 0.0 
1.0016 -0.000963512 0.0 
1.00091 -0.00099358 0.0 
0.999159 -0.000499515 0.0 
1.00158 -0.00424281 0.0 
0.999982 0.00136805 0.0 
0.998154 -0.000659338 0.0 
1.00318 -0.000958579 0.0 
0.180629 -0.0164209 0.0 
1.00245 -0.00068946 0.0 
1.00138 -0.000148863 0.0 
0.997315 0.00142504 0.0 
0.999968 -0.000914043 0.0 
0.998817 -0.000113015 0.0 
1.004 -0.0010974 0.0 
1.00007 -0.000366525 0.0 
1.00066 -0.00172203 0.0 