<VTKFile type="UnstructuredGrid" version="0.1" byte_order="LittleEndian">
  <UnstructuredGrid>
    <Piece NumberOfPoints="23679" NumberOfCells="47236">
      <Points>
        <DataArray type = "Float64" NumberOfComponents="3" format="ascii">
-5 -7 0.0 
15.5 -7 0.0 
15.5 7 0.0 
-5 7 0.0 
7.63511 2.91639 0.0 
1.87049 1.67084 0.0 
-0.605974 -0.287769 0.0 
2.37337 -3.10656 0.0 
0.929906 2.48659 0.0 
0.824948 -0.0289232 0.0 
0.579762 -2.6174 0.0 
2.75639 -0.320238 0.0 
0.600589 -0.0279367 0.0 
0.809974 0.0358912 0.0 
4.52511 -0.0925724 0.0 
0.692729 -0.023898 0.0 
2.14598 1.71184 0.0 
4.47114 -0.725108 0.0 
2.94972 0.812693 0.0 
-2.51884 -5.20772 0.0 
0.933054 -0.00978829 0.0 
-3.39004 -0.0550254 0.0 
0.209319 0.0741243 0.0 
-0.14562 -1.1416 0.0 
0.16355 -0.0415655 0.0 
4.37129 -0.146188 0.0 
0.125896 0.0617342 0.0 
2.89507 -0.00321849 0.0 
0.117818 -0.0547525 0.0 
0.74577 -0.0190427 0.0 
1.20907 -2.59566 0.0 
7.05945 1.36908 0.0 
1.18414 0.837326 0.0 
-0.664239 0.00933663 0.0 
0.988285 -0.635056 0.0 
0.79931 -0.0154644 0.0 
-0.169857 -0.752454 0.0 
-0.535193 0.781979 0.0 
4.50646 0.336854 0.0 
0.675201 -0.447934 0.0 
4.33956 3.92927 0.0 
7.20401 -0.547152 0.0 
5.06202 0.761268 0.0 
-1.83764 -0.830466 0.0 
2.97447 -2.59497 0.0 
1.77447 -4.2029 0.0 
0.203756 0.0741702 0.0 
2.3905 -0.208726 0.0 
-2.38226 0.0491773 0.0 
1.57579 -4.90006 0.0 
0.892623 0.876713 0.0 
0.619187 0.0692661 0.0 
1.81524 2.22933 0.0 
3.20393 -0.375619 0.0 
0.560088 -0.0307549 0.0 
-4.00064 -1.06423 0.0 
4.1637 1.41296 0.0 
2.03909 0.577378 0.0 
3.97155 -0.451817 0.0 
-1.0713 0.305678 0.0 
1.24518 -0.853569 0.0 
5.30713 0.379083 0.0 
0.993214 0.00283989 0.0 
0.513972 -3.72515 0.0 
4.25372 1.90694 0.0 
0.87556 0.025233 0.0 
0.401296 0.0780688 0.0 
0.44761 -0.0359067 0.0 
-3.06259 -0.640688 0.0 
0.58449 -3.29242 0.0 
4.47137 0.702541 0.0 
-0.523713 -0.272593 0.0 
-0.477755 -0.422453 0.0 
0.570246 -0.533547 0.0 
0.538433 -0.0310055 0.0 
5.2741 -1.01059 0.0 
2.21102 -1.39328 0.0 
1.30783 -0.274121 0.0 
4.18709 -1.48886 0.0 
-1.19726 -3.28581 0.0 
-0.0359698 -1.75399 0.0 
0.617039 -0.0263973 0.0 
5.83653 0.150199 0.0 
5.57946 0.224905 0.0 
0.377841 -0.038928 0.0 
1.38254 1.36675 0.0 
2.58372 -1.06479 0.0 
4.70454 -3.6075 0.0 
0.551438 0.113173 0.0 
0.532912 -0.0384617 0.0 
-0.392031 -0.729994 0.0 
4.38556 1.53498 0.0 
-1.34387 -2.96962 0.0 
4.73748 -0.295427 0.0 
5.13252 -2.84762 0.0 
5.34987 1.08334 0.0 
0.326684 0.0802051 0.0 
1.0681 0.191919 0.0 
0.292684 0.0800176 0.0 
-0.288073 -0.693253 0.0 
0.850052 0.029488 0.0 
7.72674 -2.22661 0.0 
5.73402 0.253504 0.0 
3.27298 3.73283 0.0 
2.31769 -0.889324 0.0 
3.24694 -2.57408 0.0 
-0.795775 -5.8192 0.0 
0.667923 -0.0361302 0.0 
0.835769 0.0314682 0.0 
4.69839 -1.50939 0.0 
4.91709 3.01814 0.0 
0.151849 -0.0409087 0.0 
3.55148 0.264681 0.0 
0.842117 -0.794382 0.0 
2.65591 1.43349 0.0 
0.932811 0.0144733 0.0 
-0.764917 -0.926758 0.0 
3.60734 -0.915315 0.0 
-0.605852 0.649115 0.0 
5.76621 -0.263827 0.0 
3.08877 -0.924843 0.0 
0.899825 -0.00795866 0.0 
6.80384 1.26814 0.0 
3.19847 -0.826277 0.0 
0.0166341 -0.0962489 0.0 
3.983 -1.51439 0.0 
5.81155 1.05052 0.0 
0.403773 -0.0376754 0.0 
4.06583 -0.737319 0.0 
3.85222 3.16404 0.0 
7.27994 -0.917065 0.0 
7.01199 -1.44503 0.0 
5.44634 0.7472 0.0 
5.43495 -0.0201864 0.0 
1.51213 -0.834065 0.0 
1.97076 0.806002 0.0 
0.634487 0.0595385 0.0 
-0.572414 -4.29099 0.0 
1.8826 -0.733417 0.0 
0.759381 -0.180619 0.0 
0.40132 0.0778474 0.0 
0.23454 -0.0430222 0.0 
-0.802406 2.95957 0.0 
0.691963 0.0549995 0.0 
5.47277 -0.740356 0.0 
14.1487 4.94071 0.0 
0.0736498 -1.30758 0.0 
-3.24273 0.882011 0.0 
1.37104 -0.876055 0.0 
-0.483647 -0.194829 0.0 
2.83565 1.06937 0.0 
5.52957 -1.21731 0.0 
0.947149 -0.00912481 0.0 
-0.408161 -0.611461 0.0 
-0.824132 1.91234 0.0 
-0.28194 0.734853 0.0 
-2.58987 -0.112571 0.0 
5.39673 0.0810302 0.0 
0.347037 -1.34491 0.0 
1.28521 2.08402 0.0 
0.220369 -0.0424097 0.0 
-0.490215 0.575937 0.0 
1.64934 -1.3049 0.0 
0.153085 0.0664047 0.0 
-0.251695 -2.55503 0.0 
0.826156 -0.0139773 0.0 
3.35673 0.186652 0.0 
4.62807 -2.39408 0.0 
-1.05781 -1.39579 0.0 
-2.54531 4.21509 0.0 
1.60336 1.51116 0.0 
0.713093 0.0498095 0.0 
0.643534 0.0642145 0.0 
-3.64101 4.81173 0.0 
-1.26922 -3.94313 0.0 
-0.342655 -1.12768 0.0 
3.30326 0.952175 0.0 
5.64264 0.331249 0.0 
1.34559 -0.214642 0.0 
1.60527 0.321358 0.0 
0.328683 -0.0401423 0.0 
3.81728 0.37784 0.0 
4.37562 0.758715 0.0 
5.5831 -1.82905 0.0 
-1.49688 0.101849 0.0 
-1.70027 -0.343758 0.0 
0.937041 0.0136815 0.0 
5.60623 1.42522 0.0 
-1.23169 -0.42816 0.0 
1.69627 2.52442 0.0 
1.36245 -1.5082 0.0 
1.25107 -3.80948 0.0 
2.74679 0.528168 0.0 
5.36614 -1.19177 0.0 
0.605019 1.16677 0.0 
-4.58423 -1.62108 0.0 
-2.02651 2.34708 0.0 
3.99339 3.63024 0.0 
-1.36142 -0.0750085 0.0 
5.19766 -0.482867 0.0 
-3.85513 -1.43107 0.0 
0.966422 0.00919783 0.0 
0.247834 0.0870881 0.0 
-0.465649 -0.817954 0.0 
4.29025 4.26714 0.0 
1.18312 -0.431176 0.0 
9.21986 0.0258833 0.0 
5.39136 -0.625475 0.0 
5.56604 0.611257 0.0 
1.96388 -1.61685 0.0 
0.196106 -0.0423443 0.0 
2.93186 0.364486 0.0 
5.88518 0.822328 0.0 
0.824138 -0.0139123 0.0 
-0.47228 -0.526413 0.0 
0.477118 -0.0338206 0.0 
-4.64673 -2.62107 0.0 
4.10712 -0.887195 0.0 
0.710355 0.0501717 0.0 
1.64936 -0.864917 0.0 
-1.61346 -3.22424 0.0 
0.0092848 0.0284272 0.0 
7.26993 2.53793 0.0 
1.1048 2.83071 0.0 
10.1588 1.30502 0.0 
-0.263385 -0.26391 0.0 
13.7005 7 0.0 
0.52333 0.0703707 0.0 
4.58595 -1.29531 0.0 
5.62067 -0.188463 0.0 
0.799738 -0.0147854 0.0 
11.9625 -2.20661 0.0 
5.40435 0.619553 0.0 
3.28687 -1.45096 0.0 
0.458966 0.0872446 0.0 
5.51568 -0.596029 0.0 
-1.63011 3.37507 0.0 
0.293181 -0.0414659 0.0 
0.865321 -2.71027 0.0 
0.786038 -0.0158333 0.0 
0.0736186 0.0492692 0.0 
4.13993 -2.76136 0.0 
0.881421 -0.0921271 0.0 
0.266317 -3.38104 0.0 
4.88629 -0.852705 0.0 
0.437008 0.076424 0.0 
3.8816 4.12562 0.0 
7.92184 -0.0908268 0.0 
0.176354 -0.0480078 0.0 
-0.662142 0.143724 0.0 
6.26015 0.128606 0.0 
0.915518 -0.00670685 0.0 
3.62021 -1.04763 0.0 
1.34876 0.720027 0.0 
0.982357 -3.49725 0.0 
0.663709 0.0566737 0.0 
5.3066 -0.705713 0.0 
-0.944514 -3.61431 0.0 
1.79294 -0.661223 0.0 
-0.342215 2.27409 0.0 
5.88842 -0.367403 0.0 
0.211839 -0.0420107 0.0 
0.654413 -0.0369233 0.0 
3.68564 6.54289 0.0 
5.00064 1.8515 0.0 
0.69027 0.0546811 0.0 
1.12166 0.441142 0.0 
7.31715 -3.60167 0.0 
2.79958 1.64327 0.0 
0.433465 0.0764782 0.0 
0.584196 0.0652607 0.0 
0.0636322 -0.695974 0.0 
-1.81416 1.63551 0.0 
0.74075 0.0465749 0.0 
2.69342 -1.49048 0.0 
4.86008 -1.00044 0.0 
0.822907 -0.0142337 0.0 
-0.164664 0.307939 0.0 
4.48127 5.51069 0.0 
4.4895 -4.79993 0.0 
5.37438 1.55243 0.0 
0.123991 1.28664 0.0 
6.41782 -0.499678 0.0 
3.16721 -0.70129 0.0 
1.99155 -0.729552 0.0 
4.69954 4.16905 0.0 
-1.91695 -2.36563 0.0 
8.09216 1.16816 0.0 
0.242046 0.0802658 0.0 
2.34355 2.47663 0.0 
2.72841 -0.285972 0.0 
13.5916 6.05949 0.0 
1.64671 4.40597 0.0 
3.03209 1.84093 0.0 
-0.498111 0.662759 0.0 
0.765551 -2.10462 0.0 
5.25655 0.61914 0.0 
6.04759 -2.75505 0.0 
1.12471 -0.237361 0.0 
6.40695 -2.14103 0.0 
4.37139 0.883681 0.0 
0.240004 -0.042139 0.0 
-4.55867 -4.42627 0.0 
-1.09286 3.96435 0.0 
-1.07351 0.572111 0.0 
3.73338 -0.828021 0.0 
-0.766762 -0.403459 0.0 
0.402752 -1.68281 0.0 
0.925255 0.0164317 0.0 
0.88786 -0.943606 0.0 
0.505244 -0.025873 0.0 
-0.299243 0.0389379 0.0 
3.36416 0.723434 0.0 
0.636773 1.7916 0.0 
0.0435288 1.09333 0.0 
0.74756 2.65039 0.0 
5.12608 -1.02106 0.0 
3.05399 0.794214 0.0 
3.3685 -2.29577 0.0 
9.40833 4.18552 0.0 
0.726496 1.10014 0.0 
-1.43587 -0.265452 0.0 
1.53809 -0.965095 0.0 
3.65342 -1.2467 0.0 
3.58193 2.86195 0.0 
1.58453 1.05649 0.0 
0.69113 -0.0216886 0.0 
4.67304 -0.737386 0.0 
2.403 -2.53676 0.0 
-0.883615 -1.03632 0.0 
0.570985 0.067201 0.0 
4.5489 1.01634 0.0 
1.30188 0.95494 0.0 
4.78484 -2.98767 0.0 
0.647276 3.74647 0.0 
1.64058 -1.98991 0.0 
5.60464 1.66025 0.0 
-2.46641 -2.76999 0.0 
0.0236771 0.0292808 0.0 
1.83737 -2.85625 0.0 
0.712397 -0.0207427 0.0 
-0.929233 -3.15638 0.0 
5.62429 -0.0217768 0.0 
0.696715 -0.0236006 0.0 
4.31467 0.462465 0.0 
1.90518 -1.00498 0.0 
3.8123 -0.317197 0.0 
-1.40698 0.43063 0.0 
8.12686 0.163945 0.0 
0.0912505 -0.0517404 0.0 
0.360402 0.0788181 0.0 
0.766222 5.08386 0.0 
0.543306 0.227627 0.0 
0.768677 -0.887089 0.0 
13.8069 6.49329 0.0 
3.14545 -0.527242 0.0 
3.00213 0.685174 0.0 
-3.26851 -1.17579 0.0 
0.326091 -0.0407782 0.0 
-0.350969 -1.28117 0.0 
-1.34372 -4.38367 0.0 
-1.47047 0.274883 0.0 
8.69891 -0.824176 0.0 
0.572752 0.0666296 0.0 
3.02391 1.56815 0.0 
0.546825 -0.0304958 0.0 
7.53034 -2.92118 0.0 
0.862614 -3.9233 0.0 
7.46433 -0.686568 0.0 
0.435695 0.0763326 0.0 
-0.291216 -0.600905 0.0 
0.958024 -0.00418663 0.0 
0.996359 0.00209859 0.0 
-3.04054 -1.35802 0.0 
7.86523 -1.29492 0.0 
0.824153 0.0339519 0.0 
-2.0843 -1.39076 0.0 
2.0242 4.23744 0.0 
6.10554 -1.09258 0.0 
0.070474 0.0518922 0.0 
0.253412 0.0852338 0.0 
4.90662 -3.37133 0.0 
5.3389 -1.37998 0.0 
8.18441 -5.4394 0.0 
4.74018 -1.11041 0.0 
-1.45792 -1.69797 0.0 
-0.658439 1.28669 0.0 
-1.47154 1.02941 0.0 
0.548603 -1.30682 0.0 
-4.28372 4.01846 0.0 
0.597388 -0.031556 0.0 
0.976283 3.91053 0.0 
-1.97604 3.44687 0.0 
-0.823498 -1.2495 0.0 
-0.676338 -0.322971 0.0 
0.0194499 -2.00073 0.0 
6.06625 2.2173 0.0 
4.77636 1.32682 0.0 
3.5286 -1.40716 0.0 
2.2348 6.10147 0.0 
4.3501 1.14584 0.0 
-0.374853 0.997283 0.0 
0.331239 -0.0398749 0.0 
2.92416 0.944765 0.0 
-1.08711 -0.79613 0.0 
-2.10643 0.811211 0.0 
10.0853 -2.20029 0.0 
9.19723 -1.4685 0.0 
-3.63493 -2.23583 0.0 
9.13289 -4.40814 0.0 
0.13646 -0.0401233 0.0 
3.73879 -1.49966 0.0 
1.16246 1.31001 0.0 
1.76621 -0.985528 0.0 
0.279409 0.0783782 0.0 
4.49882 0.813878 0.0 
0.0773295 0.0501322 0.0 
-1.7711 -2.7915 0.0 
2.21785 -2.83793 0.0 
1.9729 0.35934 0.0 
6.07917 0.172121 0.0 
-1.06801 -1.19434 0.0 
-0.742511 -0.787541 0.0 
4.55801 -0.996424 0.0 
10.0032 -3.21238 0.0 
4.23955 3.27 0.0 
4.4588 0.213546 0.0 
-3.41169 -1.50587 0.0 
0.374392 0.944982 0.0 
[...]
<PointData>
  <DataArray type = "Float64" Name="VitesseP1" NumberOfComponents="3" format="ascii">
1 0 0.0 
1.00297 0 0.0 
0.997848 0 0.0 
1 0 0.0 
1.00003 -0.00098041 0.0 
1.00628 -0.00602125 0.0 
0.983527 -0.00243616 0.0 
1.00112 -0.00085459 0.0 
1.00682 -0.000996024 0.0 
0.624796 0.0384694 0.0 
1.00098 -0.00113737 0.0 
0.999606 -0.00344465 0.0 
0.0115796 0.000358831 0.0 
0 0 0.0 
0.945357 -0.00154281 0.0 
0.0879611 0.0054775 0.0 
1.00501 -0.00555324 0.0 
1.00161 -0.00200111 0.0 
1.00167 -0.00548297 0.0 
1.00009 -0.000177166 0.0 
0.149761 0.0100604 0.0 
0.999511 0.00133802 0.0 
0.0776938 0.00947276 0.0 
1.00078 -0.00586262 0.0 
1.25679e-08 -4.78246e-10 0.0 
0.998505 -0.00235622 0.0 
3.12995e-08 6.97054e-09 0.0 
0.844919 -0.00389052 0.0 
1.13922 -0.112872 0.0 
0.0182607 0.00170739 0.0 
1.00107 -0.000894332 0.0 
1.00156 -0.00126174 0.0 
1.01461 -0.0170624 0.0 
0.982484 0.00841307 0.0 
1.00258 0.00829715 0.0 
0.0132429 0.000626397 0.0 
0.999213 -0.0118716 0.0 
1.00319 0.0187559 0.0 
1.00144 -0.00277585 0.0 
1.01652 0.0122511 0.0 
1.00071 -0.00142416 0.0 
1.00482 0.000150011 0.0 
1.00164 -0.00238592 0.0 
0.997252 0.000750475 0.0 
1.00121 -0.001052 0.0 
1.00099 -0.000626791 0.0 
0.174167 0.0175531 0.0 
0.998241 -0.00404699 0.0 
0.998383 0.00269443 0.0 
1.00091 -0.000469559 0.0 
1.02356 -0.013276 0.0 
0.41141 -0.0405382 0.0 
1.00544 -0.00364884 0.0 
1.00063 -0.00303291 0.0 
0.0309561 0.00188845 0.0 
0.999821 0.000429222 0.0 
1.00153 -0.00307161 0.0 
1.00106 -0.010622 0.0 
1.00139 -0.00244569 0.0 
0.993606 0.00928457 0.0 
1.00024 0.00338545 0.0 
1.0012 -0.00176834 0.0 
-3.04408e-09 -6.38442e-10 0.0 
1.00074 -0.000779711 0.0 
1.00159 -0.00274741 0.0 
-0.000840933 0.000158163 0.0 
3.2274e-08 -4.27327e-10 0.0 
0 0 0.0 
0.999184 0.00109546 0.0 
1.0008 -0.00089655 0.0 
1.00162 -0.00286932 0.0 
0.980843 -0.00437862 0.0 
0.986083 -0.00866864 0.0 
1.01716 0.00502638 0.0 
0 0 0.0 
1.00198 -0.00158523 0.0 
1 -0.000990963 0.0 
0.987459 0.00641274 0.0 
1.00153 -0.00165216 0.0 
1.00006 -0.000737113 0.0 
1.00095 -0.00266508 0.0 
0 0 0.0 
0.982906 -0.00173921 0.0 
1.01371 -0.000416518 0.0 
3.44028e-08 1.57729e-09 0.0 
1.00992 -0.00803497 0.0 
0.99987 -0.00178689 0.0 
1.00175 -0.000795817 0.0 
1.13231 -0.068983 0.0 
0.388679 0.0202836 0.0 
0.994739 -0.0093856 0.0 
1.00154 -0.00283078 0.0 
0.999861 -0.000786415 0.0 
1.00171 -0.0020569 0.0 
1.00196 -0.000994946 0.0 
1.00142 -0.00222834 0.0 
0.116059 0.000464603 0.0 
0.996839 -0.0611658 0.0 
0.148775 0.00371023 0.0 
0.995487 -0.0117996 0.0 
-1.03842e-09 1.60265e-11 0.0 
1.00275 -0.000899026 0.0 
1.00684 -0.00267983 0.0 
1.00156 -0.0016642 0.0 
0.999172 -0.00170188 0.0 
1.00129 -0.00110583 0.0 
1.00036 -0.000210323 0.0 
0.595409 0.0344918 0.0 
0 0 0.0 
1.00179 -0.00154039 0.0 
1.00082 -0.00177494 0.0 
0 0 0.0 
1.00101 -0.00389401 0.0 
1.00549 0.00451548 0.0 
1.003 -0.0055002 0.0 
0 0 0.0 
0.995329 -0.00378272 0.0 
1.00107 -0.00219086 0.0 
0.999144 0.019202 0.0 
1.00525 -0.00431346 0.0 
1.00049 -0.00222992 0.0 
0 0 0.0 
1.00208 -0.00164743 0.0 
1.00058 -0.00236194 0.0 
0.994143 -0.169867 0.0 
1.00142 -0.0016651 0.0 
1.00087 -0.00223771 0.0 
0 0 0.0 
1.00136 -0.00217854 0.0 
1.00147 -0.00205376 0.0 
1.00394 -0.000594859 0.0 
1.00239 -0.00141923 0.0 
1.00137 -0.00226762 0.0 
0.906102 -0.00165712 0.0 
0.998417 0.00173228 0.0 
1.00318 -0.0105796 0.0 
0 0 0.0 
1.00039 -0.00056073 0.0 
0.997577 -0.000635549 0.0 
1.0163 0.0358409 0.0 
0 0 0.0 
0.0478418 0.000486304 0.0 
1.00355 0.00263302 0.0 
0.0613899 -0.00760279 0.0 
1.00211 -0.0017433 0.0 
0.998278 -0.000225177 0.0 
1.00216 -0.00426017 0.0 
0.999776 0.0019838 0.0 
0.999364 0.00246953 0.0 
0.976317 -0.00283477 0.0 
1.00226 -0.00564343 0.0 
1.00227 -0.00124643 0.0 
0.161249 0.0106792 0.0 
0.991819 -0.0103413 0.0 
1.00489 0.00589436 0.0 
1.009 0.0248703 0.0 
0.998651 0.00216971 0.0 
0.95947 -0.00698005 0.0 
1.00304 -0.00263848 0.0 
1.00772 -0.00309734 0.0 
7.98558e-09 -1.78999e-10 0.0 
0.998764 0.0237558 0.0 
1.00003 9.46931e-05 0.0 
0 0 0.0 
1.00043 -0.00142779 0.0 
0.0252917 0.00192727 0.0 
1.00014 -0.00416268 0.0 
1.0018 -0.00120455 0.0 
0.997778 -0.00191972 0.0 
1.00071 0.00107373 0.0 
1.00772 -0.00697442 0.0 
0 0 0.0 
0.253014 -0.0273464 0.0 
1.00019 0.000481942 0.0 
1.00017 -0.000539288 0.0 
0.999071 -0.00581329 0.0 
1.00181 -0.00454953 0.0 
0.999734 0.000321494 0.0 
0.985271 0.0040032 0.0 
0.996743 -0.0178119 0.0 
0 0 0.0 
1.00121 -0.00355732 0.0 
1.00161 -0.00296735 0.0 
1.00205 -0.00114004 0.0 
0.995608 0.00506665 0.0 
0.996205 0.00237877 0.0 
0 0 0.0 
1.00103 -0.00203139 0.0 
0.993694 0.00144497 0.0 
1.00524 -0.00272955 0.0 
1.00103 1.16034e-05 0.0 
1.00092 -0.000717377 0.0 
1.0009 -0.00614878 0.0 
1.00208 -0.00170363 0.0 
1.02138 -0.00153893 0.0 
0.999981 0.00010337 0.0 
1.00144 0.00329458 0.0 
1.00106 -0.00167806 0.0 
0.99418 0.004224 0.0 
1.00197 -0.00155758 0.0 
0.99979 0.000331069 0.0 
-0.0126115 0.00255812 0.0 
1.09454 0.0825312 0.0 
0.995495 -0.00750664 0.0 
1.00063 -0.00123677 0.0 
0.994783 0.0100278 0.0 
0.974184 -0.000136087 0.0 
1.00273 -0.0022689 0.0 
1.00245 -0.00193423 0.0 
1.00047 -0.000686189 0.0 
2.00523e-08 -9.77066e-10 0.0 
1.00056 -0.0053694 0.0 
1.0025 -0.00149513 0.0 
0.01696 0.00111192 0.0 
0.989166 -0.00903937 0.0 
0 0 0.0 
0.999996 1.63529e-05 0.0 
1.00146 -0.00205279 0.0 
0 0 0.0 
0.9984 0.000773547 0.0 
0.999929 -0.00062073 0.0 
0.690649 0.504821 0.0 
1.00027 -0.00111769 0.0 
1.00545 -0.00108061 0.0 
1.00299 -0.000122067 0.0 
0.973141 -0.0215274 0.0 
0.998013 0 0.0 
0 0 0.0 
1.00171 -0.00166049 0.0 
0.993746 -0.000778481 0.0 
0 0 0.0 
1.00346 -0.000639348 0.0 
1.00147 -0.00195032 0.0 
1.0009 -0.00171244 0.0 
0.857876 -0.0387743 0.0 
1.00158 -0.00108576 0.0 
1.00182 0.00202146 0.0 
1.79169e-08 8.21736e-10 0.0 
1.00102 -0.000993407 0.0 
0 0 0.0 
6.97911e-08 2.11059e-08 0.0 
1.00163 -0.00108372 0.0 
1.00069 0.0467205 0.0 
1.00068 -0.000901521 0.0 
1.00188 -0.001774 0.0 
0 0 0.0 
1.00093 -0.00135983 0.0 
0.971097 -0.000369758 0.0 
0.696292 -0.0260705 0.0 
0.98442 0.0132022 0.0 
0.972969 -0.00119538 0.0 
0 0 0.0 
1.00106 -0.00206612 0.0 
1.00954 -0.0189837 0.0 
1.00088 -0.000802851 0.0 
0.00474719 -0.000573778 0.0 
1.00158 -0.00153094 0.0 
1.00022 -0.000708941 0.0 
0.996787 -0.000311076 0.0 
1.00631 0.00380433 0.0 
1.01177 -0.00554996 0.0 
0 0 0.0 
0.599757 0.0343977 0.0 
1.00037 -0.000175267 0.0 
1.00131 -0.00223055 0.0 
0.0425761 -0.00521863 0.0 
1.01194 -0.0353912 0.0 
1.00233 -0.000623524 0.0 
1.00311 -0.00476868 0.0 
0 0 0.0 
8.08434e-09 -5.30027e-10 0.0 
1.00576 -0.0133992 0.0 
1.0013 0.00476856 0.0 
0.00307058 -0.00041184 0.0 
1.00048 -0.00143173 0.0 
1.00188 -0.00175258 0.0 
0.026868 0.00160608 0.0 
0.989892 0.0600969 0.0 
1.00019 -0.000608487 0.0 
1.00159 -0.000497561 0.0 
1.00136 -0.00208716 0.0 
1.01599 0.00759891 0.0 
1.0112 -0.0051146 0.0 
1.00038 -0.00254734 0.0 
0.997781 -0.0011336 0.0 
1.00044 -0.00123086 0.0 
0.999432 -0.000512348 0.0 
1.001 -0.00149916 0.0 
0.553647 0.0405257 0.0 
1.00376 -0.00326639 0.0 
0.999308 -0.00354692 0.0 
0.998095 -9.76569e-05 0.0 
1.00219 -0.000657842 0.0 
1.00283 -0.0040949 0.0 
1.00077 0.0217157 0.0 
1.00134 -0.00112292 0.0 
1.00122 -0.00248118 0.0 
1.00224 -0.000917749 0.0 
0.986247 0.017335 0.0 
1.00245 -0.000950549 0.0 
1.00162 -0.00297796 0.0 
0 0 0.0 
1 -2.83034e-05 0.0 
1.00198 0.00135349 0.0 
0.996798 0.0107042 0.0 
1.00116 -0.00223537 0.0 
0.989047 -0.00151653 0.0 
1.002 -0.00193763 0.0 
-2.70195e-08 4.28362e-09 0.0 
1.00414 0.0026445 0.0 
0 0 0.0 
0.952677 0.0176782 0.0 
1.00152 -0.00444492 0.0 
1.01177 -0.000282116 0.0 
1.01832 0.0122933 0.0 
1.00634 -0.000270727 0.0 
1.00182 -0.00161165 0.0 
1.00161 -0.00519416 0.0 
1.00125 -0.00121841 0.0 
0.999064 -0.00050123 0.0 
1.02159 -0.00496986 0.0 
0.994904 0.00278145 0.0 
0.999119 0.00118404 0.0 
1.0011 -0.0018889 0.0 
1.00181 -0.00242094 0.0 
1.0079 -0.0113071 0.0 
0 0 0.0 
1.00171 -0.00190465 0.0 
1.00104 -0.000949575 0.0 
0.99626 -0.00292948 0.0 
0.0282793 -0.00220412 0.0 
1.00156 -0.00278352 0.0 
1.01217 -0.0140565 0.0 
1.00183 -0.000970899 0.0 
1.00336 6.84652e-05 0.0 
1.00088 -0.000645559 0.0 
1.00126 -0.00182574 0.0 
0.999706 -0.000275298 0.0 
5.75987e-08 2.91069e-08 0.0 
1.00107 -0.000844386 0.0 
2.51315e-08 1.90252e-09 0.0 
1.00012 -0.000880657 0.0 
0.918537 0.000277393 0.0 
0.0852044 0.00560258 0.0 
1.00147 -0.00298766 0.0 
0.998965 -0.000425994 0.0 
1.00126 -0.00265577 0.0 
0.996547 0.00706397 0.0 
0.975209 -0.00150159 0.0 
1.14123 -0.155103 0.0 
1.22501e-08 5.54981e-10 0.0 
1.00172 -3.83823e-05 0.0 
1.1075 -0.0388843 0.0 
1.00597 0.00246508 0.0 
0.998045 -5.15047e-05 0.0 
1.00032 -0.00282084 0.0 
1.00146 -0.00534199 0.0 
0.999462 0.000588281 0.0 
0.0125082 0.000617548 0.0 
0.999297 -0.00460686 0.0 
1.00021 -0.000435474 0.0 
0.996157 0.00600294 0.0 
1.00931 -0.00149938 0.0 
0.00860364 -0.000990871 0.0 
1.0026 -0.00453588 0.0 
0 0 0.0 
1.00248 -0.000674591 0.0 
1.00081 -0.000703989 0.0 
1.0065 -0.00244196 0.0 
0 0 0.0 
0.993519 -0.0137589 0.0 
0 0 0.0 
0 0 0.0 
0.999329 0.000486175 0.0 
1.00206 -0.00110578 0.0 
0.000588922 -0.000103838 0.0 
0.99848 8.31234e-05 0.0 
1.00213 -0.000963273 0.0 
1.00193 -0.00120884 0.0 
0.797497 0.251802 0.0 
0.959787 0.0669741 0.0 
1.00182 -0.000850242 0.0 
1.00208 -0.00147211 0.0 
1.00227 -0.000243519 0.0 
1.00178 -0.00167926 0.0 
0.998558 -0.00100668 0.0 
1.00548 0.0106701 0.0 
0.999918 0.00712469 0.0 
1.00343 -0.00149766 0.0 
1.00004 0.000393913 0.0 
0.188808 0.0109295 0.0 
1.00305 -0.000297369 0.0 
1.00142 0.00187983 0.0 
0.997381 -0.00291158 0.0 
0.98612 -0.0017601 0.0 
1.00083 -0.00205615 0.0 
1.00072 -0.00157604 0.0 
1.00136 -0.00257004 0.0 
1.00107 -0.00176422 0.0 
1.00098 -0.000246005 0.0 
1.0015 -0.00297023 0.0 
1.00876 0.0163826 0.0 
0 0 0.0 
1.00198 -0.0054897 0.0 
0.994752 -0.0012253 0.0 
0.999196 0.00443771 0.0 
1.00263 -0.000416379 0.0 
1.0004 -0.000895464 0.0 
0.999822 8.33419e-05 0.0 
1.00257 -0.000383737 0.0 
0 0 0.0 
1.00126 -0.00169956 0.0 
1.0127 -0.00785181 0.0 
0.998878 8.0024e-05 0.0 
0 0 0.0 
1.00163 -0.00285198 0.0 
0 0 0.0 
0.999698 -0.000600645 0.0 
1.0011 -0.000873017 0.0 
0.998678 -0.0111694 0.0 
0.97934 -0.00684833 0.0 
0.996955 -0.00194348 0.0 
0.994008 -0.0041011 0.0 
1.00173 -0.00182023 0.0 
1.00271 -0.000397137 0.0 
1.00112 -0.00186078 0.0 
1.00097 -0.00278718 0.0 
0.999603 0.000364803 0.0 
1.02782 0.0056421 0.0 
0 0 0.0 
1.00366 -0.000342191 0.0 
1.02224 0.0159724 0.0 
0.985211 0.000921709 0.0 
0.998563 0.0134039 0.0 
1.00015 -0.00125326 0.0 
0.0114899 -0.00167717 0.0 
1.00156 -0.00171861 0.0 
1.00809 -0.00868469 0.0 
1.00099 0.00168242 0.0 
0.995678 -0.000479707 0.0 
4.31325e-08 8.27262e-10 0.0 
1.00296 -0.000244376 0.0 
1.00156 -0.00263258 0.0 
0 0 0.0 
1.00013 -0.00179656 0.0 
1.00285 0.00632011 0.0 
2.61736e-07 -9.20884e-09 0.0 
1.0002 -0.00233747 0.0 
1.00233 -0.00283733 0.0 
1.00049 -0.00146956 0.0 
0.0184143 0.000494216 0.0 
1.00793 0.00153234 0.0 
1.00211 -0.000263482 0.0 
1.00259 0.00331783 0.0 
1.01458 0.00161915 0.0 
1.003 -0.000154363 0.0 
1.00027 -0.00105826 0.0 
1.00248 -0.000217329 0.0 
1.00024 0.00404547 0.0 
1.00121 -0.00209015 0.0 
0.108158 0.0203375 0.0 
1.00099 -0.0010689 0.0 
0.283299 0.0217379 0.0 
1.00162 -0.000857739 0.0 
1.00014 0.00118992 0.0 
1.00017 0.00279943 0.0 
1.00127 -0.000450751 0.0 
1.00257 -0.000654126 0.0 
1.00005 0.00192823 0.0 
0.997191 0.0046243 0.0 
1.00192 -0.000238352 0.0 
1.02507 -0.00775869 0.0 
1.0001 -0.000784992 0.0 
1.00712 -6.58304e-05 0.0 
0 0 0.0 
1.00126 -0.00221314 0.0 
1.00148 -0.00422739 0.0 
1.00006 0.000417642 0.0 
1.00555 0.0220492 0.0 
1.00032 -0.00593278 0.0 
0.998975 -0.000304661 0.0 
1.00208 -0.000765438 0.0 
0.947813 -0.000160094 0.0 
0.963253 0.00198597 0.0 
8.82652e-09 1.77948e-10 0.0 
1.00284 0.00218647 0.0 
1.00153 -0.00261488 0.0 
1.0031 -0.00166386 0.0 
1.00422 -0.000873505 0.0 
0.995911 0.00377955 0.0 
0 0 0.0 
0.996804 -0.000475153 0.0 
0.999896 0.000499851 0.0 
1.002 -0.0028176 0.0 
0 0 0.0 
0.999978 6.92876e-05 0.0 
1.00059 -0.000137605 0.0 
1.00201 -0.000911354 0.0 
0.999037 -0.000888657 0.0 
1.00119 -0.000737796 0.0 
1.00644 -0.00470436 0.0 
0.930856 0.00281209 0.0 
0.999962 -0.00286912 0.0 
1.0025 -0.000435901 0.0 
1.00194 -0.00325146 0.0 
0.998045 -7.80931e-05 0.0 
1.00105 -0.000850831 0.0 
1.00144 -0.0015658 0.0 
1.00001 0.00447491 0.0 
1.00232 -0.00404963 0.0 
0.998338 -0.000163247 0.0 
1.00167 -0.000968948 0.0 
1.0015 -0.00195116 0.0 
1.00009 0.000345896 0.0 
0.0908147 -0.00562712 0.0 
1.03509 -0.0446447 0.0 
1.00201 -0.000309067 0.0 
0.999892 0.00169808 0.0 
0.144497 -0.00822999 0.0 
1.00143 -0.0025246 0.0 
0.565937 -0.0549644 0.0 
1.00275 -0.0032088 0.0 
1.00004 -0.000147618 0.0 
0.997794 0.00332139 0.0 
1.00068 -0.00108888 0.0 
1.00255 -0.00410233 0.0 
0.00960645 0.000378803 0.0 
1.00062 -0.000277319 0.0 
1.00039 -0.00175057 0.0 
1.0023 -0.000882411 0.0 
0.999961 -0.00211347 0.0 
1.00207 -0.00691472 0.0 
1.00137 -0.00220062 0.0 
1.00828 -0.00123678 0.0 
1.00154 -0.00240367 0.0 
0.999586 -0.0153721 0.0 
1.00247 0.00175896 0.0 
0.996472 0.000356608 0.0 
1.00071 0.00132919 0.0 
6.46727e-09 5.04034e-10 0.0 
0.997991 -5.04665e-05 0.0 
8.19419e-08 3.83101e-08 0.0 
1.00027 -0.00121722 0.0 
0.992025 0.00499933 0.0 
1.00224 -0.00110859 0.0 
1.00234 -0.00117 0.0 
1.00084 -0.00114864 0.0 
1.00224 -0.0105042 0.0 
0 0 0.0 
0.998529 -0.000249184 0.0 
0.994303 -0.000736231 0.0 
0.998513 -2.1792e-05 0.0 
0.0904227 0.001347 0.0 
0.0222799 0.00109888 0.0 
0 0 0.0 
1.00337 -0.000414315 0.0 
0.999806 -0.000863897 0.0 
0.999881 -0.000492634 0.0 
1.00127 -0.00112953 0.0 
1.00363 -0.00214684 0.0 
1.00053 -0.00204978 0.0 
0.99785 3.71753e-05 0.0 
1.00056 -0.000888851 0.0 
0.999856 -0.00101638 0.0 
0.0523808 -0.00725021 0.0 
0.999256 -0.00020878 0.0 
1.00728 -0.000695278 0.0 
1.0134 0.00483479 0.0 
1.00265 -0.000572923 0.0 
0.998974 -5.20447e-05 0.0 
1.00143 -0.00271819 0.0 
1.00221 -0.0035187 0.0 
1.00148 -0.00257335 0.0 
1.00364 -0.000456423 0.0 
1.0002 -0.000813695 0.0 
1.00065 -0.00588335 0.0 
1.003 -0.00164259 0.0 
1.00197 -0.00107739 0.0 
1.00147 -0.00098327 0.0 
1.00074 -0.000945148 0.0 
0.985823 -0.00561429 0.0 
1.00014 -0.00759754 0.0 
1.00466 -0.000923504 0.0 
1.00053 -0.00771793 0.0 
1.00426 -0.00715514 0.0 
1.00236 0.00406749 0.0 
1.00507 0.0156292 0.0 
1.01779 0.000333965 0.0 
1.0019 -0.00457794 0.0 
0.486508 0.186755 0.0 
1.00442 0.00390938 0.0 
1.00042 -0.000795526 0.0 
0.999169 -0.00751212 0.0 
1.0019 -0.000522678 0.0 
1.00001 0.000496302 0.0 
1.00199 -0.00229047 0.0 
1.00148 -0.000524304 0.0 
1.00164 -0.0010983 0.0 
1.00222 0.00260825 0.0 
1.00244 -0.000792665 0.0 
2.62145e-08 -3.31203e-09 0.0 
0.999364 -0.00227676 0.0 
0.999469 -0.000620397 0.0 
1.00349 -0.00702655 0.0 
0.999772 -0.000400057 0.0 
1.00058 0.000149395 0.0 
1.00306 -0.00117138 0.0 
1.00417 -0.000569732 0.0 
1.00199 -0.00317592 0.0 
1.0018 -0.00413607 0.0 
0.998331 -0.00150728 0.0 
0.999934 0.00112602 0.0 
1.00159 -0.00469749 0.0 
1.00484 0.000926757 0.0 
1.00069 -0.00169465 0.0 
1.00096 -0.00199502 0.0 
0.999539 -0.00122734 0.0 
1.00044 0.00602829 0.0 
1.00241 -0.000943944 0.0 
0 0 0.0 
0.995315 -0.000236826 0.0 
0.999704 -0.000836899 0.0 
1.00159 -0.0029919 0.0 
4.99005e-09 -8.90595e-11 0.0 
1.00043 -0.000363629 0.0 
1.00065 -0.00164783 0.0 
0.999063 -0.00152057 0.0 
1.00089 -0.00213458 0.0 
0.999034 -0.00715403 0.0 
1.00126 -0.000746178 0.0 
1.00018 0.000585964 0.0 
0 0 0.0 
1.00234 -0.00142037 0.0 
1.00029 -0.00232857 0.0 
1.00094 -0.00147892 0.0 
1.00593 -0.0023007 0.0 
1.00363 -0.00169657 0.0 
0.999922 0.000237338 0.0 
1.00091 -0.000308693 0.0 
1.0014 -0.00330308 0.0 
1.00129 -0.00351602 0.0 
1.00751 -0.0331985 0.0 
0.999421 -0.000662355 0.0 
1.00093 -0.00228178 0.0 
1.00261 -6.79164e-05 0.0 
1.0012 -0.000111478 0.0 
0.926082 -0.00537555 0.0 
0 0 0.0 
1.00151 0.000741773 0.0 
0.999212 0.00187991 0.0 
0.989086 0.00284015 0.0 
1.00296 0.000359289 0.0 
1.00159 -0.00244293 0.0 
1.00175 -0.00145942 0.0 
0.999685 0.00014274 0.0 
1.0022 -0.000114482 0.0 
0.999294 0.00388898 0.0 
1.0017 -0.00157488 0.0 
0.999754 -0.000462377 0.0 
1.00446 -0.00380101 0.0 
0.99953 -0.000320717 0.0 
1.00159 -0.000415202 0.0 
0.0141162 0.000828989 0.0 
1.01448 -0.00369281 0.0 
1.00878 -0.00460133 0.0 
1.01306 -0.0083673 0.0 
1.00173 -0.000172245 0.0 
1.00418 -0.00811505 0.0 
1.00158 -0.00157492 0.0 
0 0 0.0 
1.00099 -0.00119994 0.0 
0.732708 -0.135769 0.0 
1.0416 -0.0462637 0.0 
0.997451 0.00577382 0.0 
1.00002 -3.92782e-05 0.0 
0.997737 -0.00510781 0.0 
0.990211 0.000432357 0.0 
1.00085 0.00976834 0.0 
1.00261 -0.000509889 0.0 
0.326857 0.0333009 0.0 
1.00149 0.0040319 0.0 
1.00158 -0.0011852 0.0 
1.00166 -0.00156145 0.0 
1.00153 -0.00267226 0.0 
0 0 0.0 
0.999268 -0.000311208 0.0 
1.00109 -0.0007014 0.0 
0.999341 0.0059186 0.0 
0.999724 -0.00231291 0.0 
1.00133 -0.00070698 0.0 
1.00008 -0.00144943 0.0 
1.00254 -0.00344313 0.0 
0.995545 -0.0129809 0.0 
0.986677 -0.000326774 0.0 
0.99871 0.003118 0.0 
0.999609 -0.000530357 0.0 
1.00099 -0.000538687 0.0 
1.00087 -0.00103309 0.0 
1.00154 0.00106756 0.0 
1.05024 -0.223231 0.0 
0.997221 -0.00661995 0.0 
0.998512 0.00572546 0.0 
1.00001 0.000339033 0.0 
1.00331 -0.00179413 0.0 
1.00192 0.00288326 0.0 
1.00186 -0.000392462 0.0 
0.999943 -0.000752917 0.0 
1.00688 -0.000614655 0.0 
1.00426 -0.0267658 0.0 
1.00183 -0.00144251 0.0 
1.00137 -0.000934823 0.0 
1.00005 -0.000556313 0.0 
0.991029 0.00132407 0.0 
1.00266 -0.000601147 0.0 
1.00072 -0.000356938 0.0 
0.973679 -0.000578861 0.0 
1.00137 -0.000914925 0.0 
0.999125 -0.00257913 0.0 
1.00168 -0.000707935 0.0 
1.00012 -0.00120598 0.0 
1.00271 -0.000233723 0.0 
1.00082 -0.00300156 0.0 
1.00051 -0.000960605 0.0 
1.00067 0.000537431 0.0 
1.00081 -0.000431591 0.0 
1.00043 -0.000994634 0.0 
0.999872 0.00163378 0.0 
1.00464 -0.000293143 0.0 
1.00249 -3.08477e-05 0.0 
1.00139 -0.000487138 0.0 
1.00104 -0.000763451 0.0 
0.998403 0.00172793 0.0 
1.00324 -0.000781288 0.0 
1.00078 -2.15723e-06 0.0 
0.999988 -0.000148128 0.0 
1.00106 -0.000610155 0.0 
1.00054 -0.000691016 0.0 
0.999996 -2.45839e-05 0.0 
1.00016 -0.00119978 0.0 
1.00018 -0.000335292 0.0 
1.00003 -4.78476e-05 0.0 
1.00081 -0.00119374 0.0 
0.998126 -4.52002e-05 0.0 
0 0 0.0 
1.00111 -0.00209541 0.0 
0.999307 0.0024196 0.0 
0.999586 -0.000407969 0.0 
0.99925 -0.000631902 0.0 
1.00222 -0.00146753 0.0 
1.0001 -0.000109688 0.0 
1.00211 -0.00192528 0.0 
1.00193 -0.000818807 0.0 
0 0 0.0 
1.00849 -0.00095817 0.0 
1.05035 -0.0724179 0.0 
1.00167 -0.00124712 0.0 
1.00107 -0.000824796 0.0 
0.998572 -0.000228606 0.0 
1.00001 0.000147051 0.0 
1.00013 -0.0108182 0.0 
1.00201 -0.00350473 0.0 
1.00062 -0.000385196 0.0 
0 0 0.0 
1.00139 -0.00102859 0.0 
0.99989 -0.000786676 0.0 
1.00301 -0.000144606 0.0 
1.00261 -5.49541e-05 0.0 
1.0072 -0.000136092 0.0 
1.0011 -0.00044563 0.0 
1.00021 -0.00293481 0.0 
0.997604 0.0549787 0.0 
1.00221 -0.000634812 0.0 
1.0011 -0.00159463 0.0 
1.00168 -0.00296444 0.0 
1.00172 0.00508752 0.0 
1.00206 -0.00137654 0.0 
1.00424 0.00205206 0.0 
1.00512 0.000478928 0.0 
0.999259 -0.000262113 0.0 
1.00185 -0.00162592 0.0 
1.00264 -0.000207173 0.0 
1.00077 -0.00231651 0.0 
1.00104 -0.000348842 0.0 
1.00052 -7.41848e-05 0.0 
0.99976 -0.000762673 0.0 
1.00069 0.000771869 0.0 
1.00184 0.0327371 0.0 
1.00142 0.000477964 0.0 
-2.37227e-09 2.57028e-11 0.0 
1.00048 0.0017858 0.0 
1.00083 -0.00185182 0.0 
1.00368 0.00568101 0.0 
1.00593 -0.00260533 0.0 
0.999996 -0.000462517 0.0 
1.00026 -0.00126091 0.0 
1.00018 -0.00298377 0.0 
0.999039 -0.00214441 0.0 
1.00286 -0.000579286 0.0 
0.999601 -0.000542621 0.0 
0.994497 0.00329377 0.0 
0.99959 -0.00351263 0.0 
0.999467 0.000271943 0.0 
1.00159 -0.00294076 0.0 
0.966493 0.000337583 0.0 
1.00154 -0.00169671 0.0 
1.00076 -0.00148269 0.0 
1.00159 -0.000964197 0.0 
1.00091 -0.000991876 0.0 
0.999185 -0.00048762 0.0 
1.00159 -0.00422619 0.0 
0.999982 0.00136844 0.0 
0.998664 -0.000286525 0.0 
1.00366 -0.000340954 0.0 
0.180668 -0.0164084 0.0 
1.00243 -0.000710741 0.0 
1.00138 -0.00014982 0.0 
0.997314 0.00142713 0.0 
1.00009 -0.000871171 0.0 
0.998838 -0.000119358 0.0 
1.00369 -0.000946361 0.0 
1.00007 -0.000366422 0.0 